+ 0 1 2 cbr 1000 ------- 2 1.0 2.0 0 0
- 0 1 2 cbr 1000 ------- 2 1.0 2.0 0 0
+ 0.002 1 2 cbr 1000 ------- 2 1.0 2.0 1 1
- 0.002 1 2 cbr 1000 ------- 2 1.0 2.0 1 1
+ 0.004 1 2 cbr 1000 ------- 2 1.0 2.0 2 2
- 0.004 1 2 cbr 1000 ------- 2 1.0 2.0 2 2
+ 0.006 1 2 cbr 1000 ------- 2 1.0 2.0 3 3
- 0.006 1 2 cbr 1000 ------- 2 1.0 2.0 3 3
+ 0.008 1 2 cbr 1000 ------- 2 1.0 2.0 4 4
- 0.008 1 2 cbr 1000 ------- 2 1.0 2.0 4 4
+ 0.01 1 2 cbr 1000 ------- 2 1.0 2.0 5 5
- 0.01 1 2 cbr 1000 ------- 2 1.0 2.0 5 5
r 0.0108 1 2 cbr 1000 ------- 2 1.0 2.0 0 0
+ 0.012 1 2 cbr 1000 ------- 2 1.0 2.0 6 6
- 0.012 1 2 cbr 1000 ------- 2 1.0 2.0 6 6
r 0.0128 1 2 cbr 1000 ------- 2 1.0 2.0 1 1
+ 0.014 1 2 cbr 1000 ------- 2 1.0 2.0 7 7
- 0.014 1 2 cbr 1000 ------- 2 1.0 2.0 7 7
r 0.0148 1 2 cbr 1000 ------- 2 1.0 2.0 2 2
+ 0.016 1 2 cbr 1000 ------- 2 1.0 2.0 8 8
- 0.016 1 2 cbr 1000 ------- 2 1.0 2.0 8 8
r 0.0168 1 2 cbr 1000 ------- 2 1.0 2.0 3 3
+ 0.018 1 2 cbr 1000 ------- 2 1.0 2.0 9 9
- 0.018 1 2 cbr 1000 ------- 2 1.0 2.0 9 9
r 0.0188 1 2 cbr 1000 ------- 2 1.0 2.0 4 4
+ 0.02 1 2 cbr 1000 ------- 2 1.0 2.0 10 10
- 0.02 1 2 cbr 1000 ------- 2 1.0 2.0 10 10
r 0.0208 1 2 cbr 1000 ------- 2 1.0 2.0 5 5
+ 0.022 1 2 cbr 1000 ------- 2 1.0 2.0 11 11
- 0.022 1 2 cbr 1000 ------- 2 1.0 2.0 11 11
r 0.0228 1 2 cbr 1000 ------- 2 1.0 2.0 6 6
+ 0.024 1 2 cbr 1000 ------- 2 1.0 2.0 12 12
- 0.024 1 2 cbr 1000 ------- 2 1.0 2.0 12 12
r 0.0248 1 2 cbr 1000 ------- 2 1.0 2.0 7 7
+ 0.026 1 2 cbr 1000 ------- 2 1.0 2.0 13 13
- 0.026 1 2 cbr 1000 ------- 2 1.0 2.0 13 13
r 0.0268 1 2 cbr 1000 ------- 2 1.0 2.0 8 8
+ 0.028 1 2 cbr 1000 ------- 2 1.0 2.0 14 14
- 0.028 1 2 cbr 1000 ------- 2 1.0 2.0 14 14
r 0.0288 1 2 cbr 1000 ------- 2 1.0 2.0 9 9
+ 0.03 1 2 cbr 1000 ------- 2 1.0 2.0 15 15
- 0.03 1 2 cbr 1000 ------- 2 1.0 2.0 15 15
r 0.0308 1 2 cbr 1000 ------- 2 1.0 2.0 10 10
+ 0.032 1 2 cbr 1000 ------- 2 1.0 2.0 16 16
- 0.032 1 2 cbr 1000 ------- 2 1.0 2.0 16 16
r 0.0328 1 2 cbr 1000 ------- 2 1.0 2.0 11 11
+ 0.034 1 2 cbr 1000 ------- 2 1.0 2.0 17 17
- 0.034 1 2 cbr 1000 ------- 2 1.0 2.0 17 17
r 0.0348 1 2 cbr 1000 ------- 2 1.0 2.0 12 12
+ 0.036 1 2 cbr 1000 ------- 2 1.0 2.0 18 18
- 0.036 1 2 cbr 1000 ------- 2 1.0 2.0 18 18
r 0.0368 1 2 cbr 1000 ------- 2 1.0 2.0 13 13
+ 0.038 1 2 cbr 1000 ------- 2 1.0 2.0 19 19
- 0.038 1 2 cbr 1000 ------- 2 1.0 2.0 19 19
r 0.0388 1 2 cbr 1000 ------- 2 1.0 2.0 14 14
+ 0.04 1 2 cbr 1000 ------- 2 1.0 2.0 20 20
- 0.04 1 2 cbr 1000 ------- 2 1.0 2.0 20 20
r 0.0408 1 2 cbr 1000 ------- 2 1.0 2.0 15 15
+ 0.042 1 2 cbr 1000 ------- 2 1.0 2.0 21 21
- 0.042 1 2 cbr 1000 ------- 2 1.0 2.0 21 21
r 0.0428 1 2 cbr 1000 ------- 2 1.0 2.0 16 16
+ 0.044 1 2 cbr 1000 ------- 2 1.0 2.0 22 22
- 0.044 1 2 cbr 1000 ------- 2 1.0 2.0 22 22
r 0.0448 1 2 cbr 1000 ------- 2 1.0 2.0 17 17
+ 0.046 1 2 cbr 1000 ------- 2 1.0 2.0 23 23
- 0.046 1 2 cbr 1000 ------- 2 1.0 2.0 23 23
r 0.0468 1 2 cbr 1000 ------- 2 1.0 2.0 18 18
+ 0.048 1 2 cbr 1000 ------- 2 1.0 2.0 24 24
- 0.048 1 2 cbr 1000 ------- 2 1.0 2.0 24 24
r 0.0488 1 2 cbr 1000 ------- 2 1.0 2.0 19 19
+ 0.05 1 2 cbr 1000 ------- 2 1.0 2.0 25 25
- 0.05 1 2 cbr 1000 ------- 2 1.0 2.0 25 25
r 0.0508 1 2 cbr 1000 ------- 2 1.0 2.0 20 20
+ 0.052 1 2 cbr 1000 ------- 2 1.0 2.0 26 26
- 0.052 1 2 cbr 1000 ------- 2 1.0 2.0 26 26
r 0.0528 1 2 cbr 1000 ------- 2 1.0 2.0 21 21
+ 0.054 1 2 cbr 1000 ------- 2 1.0 2.0 27 27
- 0.054 1 2 cbr 1000 ------- 2 1.0 2.0 27 27
r 0.0548 1 2 cbr 1000 ------- 2 1.0 2.0 22 22
+ 0.056 1 2 cbr 1000 ------- 2 1.0 2.0 28 28
- 0.056 1 2 cbr 1000 ------- 2 1.0 2.0 28 28
r 0.0568 1 2 cbr 1000 ------- 2 1.0 2.0 23 23
+ 0.058 1 2 cbr 1000 ------- 2 1.0 2.0 29 29
- 0.058 1 2 cbr 1000 ------- 2 1.0 2.0 29 29
r 0.0588 1 2 cbr 1000 ------- 2 1.0 2.0 24 24
+ 0.06 1 2 cbr 1000 ------- 2 1.0 2.0 30 30
- 0.06 1 2 cbr 1000 ------- 2 1.0 2.0 30 30
r 0.0608 1 2 cbr 1000 ------- 2 1.0 2.0 25 25
+ 0.062 1 2 cbr 1000 ------- 2 1.0 2.0 31 31
- 0.062 1 2 cbr 1000 ------- 2 1.0 2.0 31 31
r 0.0628 1 2 cbr 1000 ------- 2 1.0 2.0 26 26
+ 0.064 1 2 cbr 1000 ------- 2 1.0 2.0 32 32
- 0.064 1 2 cbr 1000 ------- 2 1.0 2.0 32 32
r 0.0648 1 2 cbr 1000 ------- 2 1.0 2.0 27 27
+ 0.066 1 2 cbr 1000 ------- 2 1.0 2.0 33 33
- 0.066 1 2 cbr 1000 ------- 2 1.0 2.0 33 33
r 0.0668 1 2 cbr 1000 ------- 2 1.0 2.0 28 28
+ 0.068 1 2 cbr 1000 ------- 2 1.0 2.0 34 34
- 0.068 1 2 cbr 1000 ------- 2 1.0 2.0 34 34
r 0.0688 1 2 cbr 1000 ------- 2 1.0 2.0 29 29
+ 0.07 1 2 cbr 1000 ------- 2 1.0 2.0 35 35
- 0.07 1 2 cbr 1000 ------- 2 1.0 2.0 35 35
r 0.0708 1 2 cbr 1000 ------- 2 1.0 2.0 30 30
+ 0.072 1 2 cbr 1000 ------- 2 1.0 2.0 36 36
- 0.072 1 2 cbr 1000 ------- 2 1.0 2.0 36 36
r 0.0728 1 2 cbr 1000 ------- 2 1.0 2.0 31 31
+ 0.074 1 2 cbr 1000 ------- 2 1.0 2.0 37 37
- 0.074 1 2 cbr 1000 ------- 2 1.0 2.0 37 37
r 0.0748 1 2 cbr 1000 ------- 2 1.0 2.0 32 32
+ 0.076 1 2 cbr 1000 ------- 2 1.0 2.0 38 38
- 0.076 1 2 cbr 1000 ------- 2 1.0 2.0 38 38
r 0.0768 1 2 cbr 1000 ------- 2 1.0 2.0 33 33
+ 0.078 1 2 cbr 1000 ------- 2 1.0 2.0 39 39
- 0.078 1 2 cbr 1000 ------- 2 1.0 2.0 39 39
r 0.0788 1 2 cbr 1000 ------- 2 1.0 2.0 34 34
+ 0.08 1 2 cbr 1000 ------- 2 1.0 2.0 40 40
- 0.08 1 2 cbr 1000 ------- 2 1.0 2.0 40 40
r 0.0808 1 2 cbr 1000 ------- 2 1.0 2.0 35 35
+ 0.082 1 2 cbr 1000 ------- 2 1.0 2.0 41 41
- 0.082 1 2 cbr 1000 ------- 2 1.0 2.0 41 41
r 0.0828 1 2 cbr 1000 ------- 2 1.0 2.0 36 36
+ 0.084 1 2 cbr 1000 ------- 2 1.0 2.0 42 42
- 0.084 1 2 cbr 1000 ------- 2 1.0 2.0 42 42
r 0.0848 1 2 cbr 1000 ------- 2 1.0 2.0 37 37
+ 0.086 1 2 cbr 1000 ------- 2 1.0 2.0 43 43
- 0.086 1 2 cbr 1000 ------- 2 1.0 2.0 43 43
r 0.0868 1 2 cbr 1000 ------- 2 1.0 2.0 38 38
+ 0.088 1 2 cbr 1000 ------- 2 1.0 2.0 44 44
- 0.088 1 2 cbr 1000 ------- 2 1.0 2.0 44 44
r 0.0888 1 2 cbr 1000 ------- 2 1.0 2.0 39 39
+ 0.09 1 2 cbr 1000 ------- 2 1.0 2.0 45 45
- 0.09 1 2 cbr 1000 ------- 2 1.0 2.0 45 45
r 0.0908 1 2 cbr 1000 ------- 2 1.0 2.0 40 40
+ 0.092 1 2 cbr 1000 ------- 2 1.0 2.0 46 46
- 0.092 1 2 cbr 1000 ------- 2 1.0 2.0 46 46
r 0.0928 1 2 cbr 1000 ------- 2 1.0 2.0 41 41
+ 0.094 1 2 cbr 1000 ------- 2 1.0 2.0 47 47
- 0.094 1 2 cbr 1000 ------- 2 1.0 2.0 47 47
r 0.0948 1 2 cbr 1000 ------- 2 1.0 2.0 42 42
+ 0.096 1 2 cbr 1000 ------- 2 1.0 2.0 48 48
- 0.096 1 2 cbr 1000 ------- 2 1.0 2.0 48 48
r 0.0968 1 2 cbr 1000 ------- 2 1.0 2.0 43 43
+ 0.098 1 2 cbr 1000 ------- 2 1.0 2.0 49 49
- 0.098 1 2 cbr 1000 ------- 2 1.0 2.0 49 49
r 0.0988 1 2 cbr 1000 ------- 2 1.0 2.0 44 44
+ 0.1 1 2 cbr 1000 ------- 2 1.0 2.0 50 50
- 0.1 1 2 cbr 1000 ------- 2 1.0 2.0 50 50
r 0.1008 1 2 cbr 1000 ------- 2 1.0 2.0 45 45
+ 0.102 1 2 cbr 1000 ------- 2 1.0 2.0 51 51
- 0.102 1 2 cbr 1000 ------- 2 1.0 2.0 51 51
r 0.1028 1 2 cbr 1000 ------- 2 1.0 2.0 46 46
+ 0.104 1 2 cbr 1000 ------- 2 1.0 2.0 52 52
- 0.104 1 2 cbr 1000 ------- 2 1.0 2.0 52 52
r 0.1048 1 2 cbr 1000 ------- 2 1.0 2.0 47 47
+ 0.106 1 2 cbr 1000 ------- 2 1.0 2.0 53 53
- 0.106 1 2 cbr 1000 ------- 2 1.0 2.0 53 53
r 0.1068 1 2 cbr 1000 ------- 2 1.0 2.0 48 48
+ 0.108 1 2 cbr 1000 ------- 2 1.0 2.0 54 54
- 0.108 1 2 cbr 1000 ------- 2 1.0 2.0 54 54
r 0.1088 1 2 cbr 1000 ------- 2 1.0 2.0 49 49
+ 0.11 1 2 cbr 1000 ------- 2 1.0 2.0 55 55
- 0.11 1 2 cbr 1000 ------- 2 1.0 2.0 55 55
r 0.1108 1 2 cbr 1000 ------- 2 1.0 2.0 50 50
+ 0.112 1 2 cbr 1000 ------- 2 1.0 2.0 56 56
- 0.112 1 2 cbr 1000 ------- 2 1.0 2.0 56 56
r 0.1128 1 2 cbr 1000 ------- 2 1.0 2.0 51 51
+ 0.114 1 2 cbr 1000 ------- 2 1.0 2.0 57 57
- 0.114 1 2 cbr 1000 ------- 2 1.0 2.0 57 57
r 0.1148 1 2 cbr 1000 ------- 2 1.0 2.0 52 52
+ 0.116 1 2 cbr 1000 ------- 2 1.0 2.0 58 58
- 0.116 1 2 cbr 1000 ------- 2 1.0 2.0 58 58
r 0.1168 1 2 cbr 1000 ------- 2 1.0 2.0 53 53
+ 0.118 1 2 cbr 1000 ------- 2 1.0 2.0 59 59
- 0.118 1 2 cbr 1000 ------- 2 1.0 2.0 59 59
r 0.1188 1 2 cbr 1000 ------- 2 1.0 2.0 54 54
+ 0.12 1 2 cbr 1000 ------- 2 1.0 2.0 60 60
- 0.12 1 2 cbr 1000 ------- 2 1.0 2.0 60 60
r 0.1208 1 2 cbr 1000 ------- 2 1.0 2.0 55 55
+ 0.122 1 2 cbr 1000 ------- 2 1.0 2.0 61 61
- 0.122 1 2 cbr 1000 ------- 2 1.0 2.0 61 61
r 0.1228 1 2 cbr 1000 ------- 2 1.0 2.0 56 56
+ 0.124 1 2 cbr 1000 ------- 2 1.0 2.0 62 62
- 0.124 1 2 cbr 1000 ------- 2 1.0 2.0 62 62
r 0.1248 1 2 cbr 1000 ------- 2 1.0 2.0 57 57
+ 0.126 1 2 cbr 1000 ------- 2 1.0 2.0 63 63
- 0.126 1 2 cbr 1000 ------- 2 1.0 2.0 63 63
r 0.1268 1 2 cbr 1000 ------- 2 1.0 2.0 58 58
+ 0.128 1 2 cbr 1000 ------- 2 1.0 2.0 64 64
- 0.128 1 2 cbr 1000 ------- 2 1.0 2.0 64 64
r 0.1288 1 2 cbr 1000 ------- 2 1.0 2.0 59 59
+ 0.13 1 2 cbr 1000 ------- 2 1.0 2.0 65 65
- 0.13 1 2 cbr 1000 ------- 2 1.0 2.0 65 65
r 0.1308 1 2 cbr 1000 ------- 2 1.0 2.0 60 60
+ 0.132 1 2 cbr 1000 ------- 2 1.0 2.0 66 66
- 0.132 1 2 cbr 1000 ------- 2 1.0 2.0 66 66
r 0.1328 1 2 cbr 1000 ------- 2 1.0 2.0 61 61
+ 0.134 1 2 cbr 1000 ------- 2 1.0 2.0 67 67
- 0.134 1 2 cbr 1000 ------- 2 1.0 2.0 67 67
r 0.1348 1 2 cbr 1000 ------- 2 1.0 2.0 62 62
+ 0.136 1 2 cbr 1000 ------- 2 1.0 2.0 68 68
- 0.136 1 2 cbr 1000 ------- 2 1.0 2.0 68 68
r 0.1368 1 2 cbr 1000 ------- 2 1.0 2.0 63 63
+ 0.138 1 2 cbr 1000 ------- 2 1.0 2.0 69 69
- 0.138 1 2 cbr 1000 ------- 2 1.0 2.0 69 69
r 0.1388 1 2 cbr 1000 ------- 2 1.0 2.0 64 64
+ 0.14 1 2 cbr 1000 ------- 2 1.0 2.0 70 70
- 0.14 1 2 cbr 1000 ------- 2 1.0 2.0 70 70
r 0.1408 1 2 cbr 1000 ------- 2 1.0 2.0 65 65
+ 0.142 1 2 cbr 1000 ------- 2 1.0 2.0 71 71
- 0.142 1 2 cbr 1000 ------- 2 1.0 2.0 71 71
r 0.1428 1 2 cbr 1000 ------- 2 1.0 2.0 66 66
+ 0.144 1 2 cbr 1000 ------- 2 1.0 2.0 72 72
- 0.144 1 2 cbr 1000 ------- 2 1.0 2.0 72 72
r 0.1448 1 2 cbr 1000 ------- 2 1.0 2.0 67 67
+ 0.146 1 2 cbr 1000 ------- 2 1.0 2.0 73 73
- 0.146 1 2 cbr 1000 ------- 2 1.0 2.0 73 73
r 0.1468 1 2 cbr 1000 ------- 2 1.0 2.0 68 68
+ 0.148 1 2 cbr 1000 ------- 2 1.0 2.0 74 74
- 0.148 1 2 cbr 1000 ------- 2 1.0 2.0 74 74
r 0.1488 1 2 cbr 1000 ------- 2 1.0 2.0 69 69
+ 0.15 1 2 cbr 1000 ------- 2 1.0 2.0 75 75
- 0.15 1 2 cbr 1000 ------- 2 1.0 2.0 75 75
r 0.1508 1 2 cbr 1000 ------- 2 1.0 2.0 70 70
+ 0.152 1 2 cbr 1000 ------- 2 1.0 2.0 76 76
- 0.152 1 2 cbr 1000 ------- 2 1.0 2.0 76 76
r 0.1528 1 2 cbr 1000 ------- 2 1.0 2.0 71 71
+ 0.154 1 2 cbr 1000 ------- 2 1.0 2.0 77 77
- 0.154 1 2 cbr 1000 ------- 2 1.0 2.0 77 77
r 0.1548 1 2 cbr 1000 ------- 2 1.0 2.0 72 72
+ 0.156 1 2 cbr 1000 ------- 2 1.0 2.0 78 78
- 0.156 1 2 cbr 1000 ------- 2 1.0 2.0 78 78
r 0.1568 1 2 cbr 1000 ------- 2 1.0 2.0 73 73
+ 0.158 1 2 cbr 1000 ------- 2 1.0 2.0 79 79
- 0.158 1 2 cbr 1000 ------- 2 1.0 2.0 79 79
r 0.1588 1 2 cbr 1000 ------- 2 1.0 2.0 74 74
+ 0.16 1 2 cbr 1000 ------- 2 1.0 2.0 80 80
- 0.16 1 2 cbr 1000 ------- 2 1.0 2.0 80 80
r 0.1608 1 2 cbr 1000 ------- 2 1.0 2.0 75 75
+ 0.162 1 2 cbr 1000 ------- 2 1.0 2.0 81 81
- 0.162 1 2 cbr 1000 ------- 2 1.0 2.0 81 81
r 0.1628 1 2 cbr 1000 ------- 2 1.0 2.0 76 76
+ 0.164 1 2 cbr 1000 ------- 2 1.0 2.0 82 82
- 0.164 1 2 cbr 1000 ------- 2 1.0 2.0 82 82
r 0.1648 1 2 cbr 1000 ------- 2 1.0 2.0 77 77
+ 0.166 1 2 cbr 1000 ------- 2 1.0 2.0 83 83
- 0.166 1 2 cbr 1000 ------- 2 1.0 2.0 83 83
r 0.1668 1 2 cbr 1000 ------- 2 1.0 2.0 78 78
+ 0.168 1 2 cbr 1000 ------- 2 1.0 2.0 84 84
- 0.168 1 2 cbr 1000 ------- 2 1.0 2.0 84 84
r 0.1688 1 2 cbr 1000 ------- 2 1.0 2.0 79 79
+ 0.17 1 2 cbr 1000 ------- 2 1.0 2.0 85 85
- 0.17 1 2 cbr 1000 ------- 2 1.0 2.0 85 85
r 0.1708 1 2 cbr 1000 ------- 2 1.0 2.0 80 80
+ 0.172 1 2 cbr 1000 ------- 2 1.0 2.0 86 86
- 0.172 1 2 cbr 1000 ------- 2 1.0 2.0 86 86
r 0.1728 1 2 cbr 1000 ------- 2 1.0 2.0 81 81
+ 0.174 1 2 cbr 1000 ------- 2 1.0 2.0 87 87
- 0.174 1 2 cbr 1000 ------- 2 1.0 2.0 87 87
r 0.1748 1 2 cbr 1000 ------- 2 1.0 2.0 82 82
+ 0.176 1 2 cbr 1000 ------- 2 1.0 2.0 88 88
- 0.176 1 2 cbr 1000 ------- 2 1.0 2.0 88 88
r 0.1768 1 2 cbr 1000 ------- 2 1.0 2.0 83 83
+ 0.178 1 2 cbr 1000 ------- 2 1.0 2.0 89 89
- 0.178 1 2 cbr 1000 ------- 2 1.0 2.0 89 89
r 0.1788 1 2 cbr 1000 ------- 2 1.0 2.0 84 84
+ 0.18 1 2 cbr 1000 ------- 2 1.0 2.0 90 90
- 0.18 1 2 cbr 1000 ------- 2 1.0 2.0 90 90
r 0.1808 1 2 cbr 1000 ------- 2 1.0 2.0 85 85
+ 0.182 1 2 cbr 1000 ------- 2 1.0 2.0 91 91
- 0.182 1 2 cbr 1000 ------- 2 1.0 2.0 91 91
r 0.1828 1 2 cbr 1000 ------- 2 1.0 2.0 86 86
+ 0.184 1 2 cbr 1000 ------- 2 1.0 2.0 92 92
- 0.184 1 2 cbr 1000 ------- 2 1.0 2.0 92 92
r 0.1848 1 2 cbr 1000 ------- 2 1.0 2.0 87 87
+ 0.186 1 2 cbr 1000 ------- 2 1.0 2.0 93 93
- 0.186 1 2 cbr 1000 ------- 2 1.0 2.0 93 93
r 0.1868 1 2 cbr 1000 ------- 2 1.0 2.0 88 88
+ 0.188 1 2 cbr 1000 ------- 2 1.0 2.0 94 94
- 0.188 1 2 cbr 1000 ------- 2 1.0 2.0 94 94
r 0.1888 1 2 cbr 1000 ------- 2 1.0 2.0 89 89
+ 0.19 1 2 cbr 1000 ------- 2 1.0 2.0 95 95
- 0.19 1 2 cbr 1000 ------- 2 1.0 2.0 95 95
r 0.1908 1 2 cbr 1000 ------- 2 1.0 2.0 90 90
+ 0.192 1 2 cbr 1000 ------- 2 1.0 2.0 96 96
- 0.192 1 2 cbr 1000 ------- 2 1.0 2.0 96 96
r 0.1928 1 2 cbr 1000 ------- 2 1.0 2.0 91 91
+ 0.194 1 2 cbr 1000 ------- 2 1.0 2.0 97 97
- 0.194 1 2 cbr 1000 ------- 2 1.0 2.0 97 97
r 0.1948 1 2 cbr 1000 ------- 2 1.0 2.0 92 92
+ 0.196 1 2 cbr 1000 ------- 2 1.0 2.0 98 98
- 0.196 1 2 cbr 1000 ------- 2 1.0 2.0 98 98
r 0.1968 1 2 cbr 1000 ------- 2 1.0 2.0 93 93
+ 0.198 1 2 cbr 1000 ------- 2 1.0 2.0 99 99
- 0.198 1 2 cbr 1000 ------- 2 1.0 2.0 99 99
r 0.1988 1 2 cbr 1000 ------- 2 1.0 2.0 94 94
+ 0.2 1 2 cbr 1000 ------- 2 1.0 2.0 100 100
- 0.2 1 2 cbr 1000 ------- 2 1.0 2.0 100 100
r 0.2008 1 2 cbr 1000 ------- 2 1.0 2.0 95 95
+ 0.202 1 2 cbr 1000 ------- 2 1.0 2.0 101 101
- 0.202 1 2 cbr 1000 ------- 2 1.0 2.0 101 101
r 0.2028 1 2 cbr 1000 ------- 2 1.0 2.0 96 96
+ 0.204 1 2 cbr 1000 ------- 2 1.0 2.0 102 102
- 0.204 1 2 cbr 1000 ------- 2 1.0 2.0 102 102
r 0.2048 1 2 cbr 1000 ------- 2 1.0 2.0 97 97
+ 0.206 1 2 cbr 1000 ------- 2 1.0 2.0 103 103
- 0.206 1 2 cbr 1000 ------- 2 1.0 2.0 103 103
r 0.2068 1 2 cbr 1000 ------- 2 1.0 2.0 98 98
+ 0.208 1 2 cbr 1000 ------- 2 1.0 2.0 104 104
- 0.208 1 2 cbr 1000 ------- 2 1.0 2.0 104 104
r 0.2088 1 2 cbr 1000 ------- 2 1.0 2.0 99 99
+ 0.21 1 2 cbr 1000 ------- 2 1.0 2.0 105 105
- 0.21 1 2 cbr 1000 ------- 2 1.0 2.0 105 105
r 0.2108 1 2 cbr 1000 ------- 2 1.0 2.0 100 100
+ 0.212 1 2 cbr 1000 ------- 2 1.0 2.0 106 106
- 0.212 1 2 cbr 1000 ------- 2 1.0 2.0 106 106
r 0.2128 1 2 cbr 1000 ------- 2 1.0 2.0 101 101
+ 0.214 1 2 cbr 1000 ------- 2 1.0 2.0 107 107
- 0.214 1 2 cbr 1000 ------- 2 1.0 2.0 107 107
r 0.2148 1 2 cbr 1000 ------- 2 1.0 2.0 102 102
+ 0.216 1 2 cbr 1000 ------- 2 1.0 2.0 108 108
- 0.216 1 2 cbr 1000 ------- 2 1.0 2.0 108 108
r 0.2168 1 2 cbr 1000 ------- 2 1.0 2.0 103 103
+ 0.218 1 2 cbr 1000 ------- 2 1.0 2.0 109 109
- 0.218 1 2 cbr 1000 ------- 2 1.0 2.0 109 109
r 0.2188 1 2 cbr 1000 ------- 2 1.0 2.0 104 104
+ 0.22 1 2 cbr 1000 ------- 2 1.0 2.0 110 110
- 0.22 1 2 cbr 1000 ------- 2 1.0 2.0 110 110
r 0.2208 1 2 cbr 1000 ------- 2 1.0 2.0 105 105
+ 0.222 1 2 cbr 1000 ------- 2 1.0 2.0 111 111
- 0.222 1 2 cbr 1000 ------- 2 1.0 2.0 111 111
r 0.2228 1 2 cbr 1000 ------- 2 1.0 2.0 106 106
+ 0.224 1 2 cbr 1000 ------- 2 1.0 2.0 112 112
- 0.224 1 2 cbr 1000 ------- 2 1.0 2.0 112 112
r 0.2248 1 2 cbr 1000 ------- 2 1.0 2.0 107 107
+ 0.226 1 2 cbr 1000 ------- 2 1.0 2.0 113 113
- 0.226 1 2 cbr 1000 ------- 2 1.0 2.0 113 113
r 0.2268 1 2 cbr 1000 ------- 2 1.0 2.0 108 108
+ 0.228 1 2 cbr 1000 ------- 2 1.0 2.0 114 114
- 0.228 1 2 cbr 1000 ------- 2 1.0 2.0 114 114
r 0.2288 1 2 cbr 1000 ------- 2 1.0 2.0 109 109
+ 0.23 1 2 cbr 1000 ------- 2 1.0 2.0 115 115
- 0.23 1 2 cbr 1000 ------- 2 1.0 2.0 115 115
r 0.2308 1 2 cbr 1000 ------- 2 1.0 2.0 110 110
+ 0.232 1 2 cbr 1000 ------- 2 1.0 2.0 116 116
- 0.232 1 2 cbr 1000 ------- 2 1.0 2.0 116 116
r 0.2328 1 2 cbr 1000 ------- 2 1.0 2.0 111 111
+ 0.234 1 2 cbr 1000 ------- 2 1.0 2.0 117 117
- 0.234 1 2 cbr 1000 ------- 2 1.0 2.0 117 117
r 0.2348 1 2 cbr 1000 ------- 2 1.0 2.0 112 112
+ 0.236 1 2 cbr 1000 ------- 2 1.0 2.0 118 118
- 0.236 1 2 cbr 1000 ------- 2 1.0 2.0 118 118
r 0.2368 1 2 cbr 1000 ------- 2 1.0 2.0 113 113
+ 0.238 1 2 cbr 1000 ------- 2 1.0 2.0 119 119
- 0.238 1 2 cbr 1000 ------- 2 1.0 2.0 119 119
r 0.2388 1 2 cbr 1000 ------- 2 1.0 2.0 114 114
+ 0.24 1 2 cbr 1000 ------- 2 1.0 2.0 120 120
- 0.24 1 2 cbr 1000 ------- 2 1.0 2.0 120 120
r 0.2408 1 2 cbr 1000 ------- 2 1.0 2.0 115 115
+ 0.242 1 2 cbr 1000 ------- 2 1.0 2.0 121 121
- 0.242 1 2 cbr 1000 ------- 2 1.0 2.0 121 121
r 0.2428 1 2 cbr 1000 ------- 2 1.0 2.0 116 116
+ 0.244 1 2 cbr 1000 ------- 2 1.0 2.0 122 122
- 0.244 1 2 cbr 1000 ------- 2 1.0 2.0 122 122
r 0.2448 1 2 cbr 1000 ------- 2 1.0 2.0 117 117
+ 0.246 1 2 cbr 1000 ------- 2 1.0 2.0 123 123
- 0.246 1 2 cbr 1000 ------- 2 1.0 2.0 123 123
r 0.2468 1 2 cbr 1000 ------- 2 1.0 2.0 118 118
+ 0.248 1 2 cbr 1000 ------- 2 1.0 2.0 124 124
- 0.248 1 2 cbr 1000 ------- 2 1.0 2.0 124 124
r 0.2488 1 2 cbr 1000 ------- 2 1.0 2.0 119 119
+ 0.25 1 2 cbr 1000 ------- 2 1.0 2.0 125 125
- 0.25 1 2 cbr 1000 ------- 2 1.0 2.0 125 125
r 0.2508 1 2 cbr 1000 ------- 2 1.0 2.0 120 120
+ 0.252 1 2 cbr 1000 ------- 2 1.0 2.0 126 126
- 0.252 1 2 cbr 1000 ------- 2 1.0 2.0 126 126
r 0.2528 1 2 cbr 1000 ------- 2 1.0 2.0 121 121
+ 0.254 1 2 cbr 1000 ------- 2 1.0 2.0 127 127
- 0.254 1 2 cbr 1000 ------- 2 1.0 2.0 127 127
r 0.2548 1 2 cbr 1000 ------- 2 1.0 2.0 122 122
+ 0.256 1 2 cbr 1000 ------- 2 1.0 2.0 128 128
- 0.256 1 2 cbr 1000 ------- 2 1.0 2.0 128 128
r 0.2568 1 2 cbr 1000 ------- 2 1.0 2.0 123 123
+ 0.258 1 2 cbr 1000 ------- 2 1.0 2.0 129 129
- 0.258 1 2 cbr 1000 ------- 2 1.0 2.0 129 129
r 0.2588 1 2 cbr 1000 ------- 2 1.0 2.0 124 124
+ 0.26 1 2 cbr 1000 ------- 2 1.0 2.0 130 130
- 0.26 1 2 cbr 1000 ------- 2 1.0 2.0 130 130
r 0.2608 1 2 cbr 1000 ------- 2 1.0 2.0 125 125
+ 0.262 1 2 cbr 1000 ------- 2 1.0 2.0 131 131
- 0.262 1 2 cbr 1000 ------- 2 1.0 2.0 131 131
r 0.2628 1 2 cbr 1000 ------- 2 1.0 2.0 126 126
+ 0.264 1 2 cbr 1000 ------- 2 1.0 2.0 132 132
- 0.264 1 2 cbr 1000 ------- 2 1.0 2.0 132 132
r 0.2648 1 2 cbr 1000 ------- 2 1.0 2.0 127 127
+ 0.266 1 2 cbr 1000 ------- 2 1.0 2.0 133 133
- 0.266 1 2 cbr 1000 ------- 2 1.0 2.0 133 133
r 0.2668 1 2 cbr 1000 ------- 2 1.0 2.0 128 128
+ 0.268 1 2 cbr 1000 ------- 2 1.0 2.0 134 134
- 0.268 1 2 cbr 1000 ------- 2 1.0 2.0 134 134
r 0.2688 1 2 cbr 1000 ------- 2 1.0 2.0 129 129
+ 0.27 1 2 cbr 1000 ------- 2 1.0 2.0 135 135
- 0.27 1 2 cbr 1000 ------- 2 1.0 2.0 135 135
r 0.2708 1 2 cbr 1000 ------- 2 1.0 2.0 130 130
+ 0.272 1 2 cbr 1000 ------- 2 1.0 2.0 136 136
- 0.272 1 2 cbr 1000 ------- 2 1.0 2.0 136 136
r 0.2728 1 2 cbr 1000 ------- 2 1.0 2.0 131 131
+ 0.274 1 2 cbr 1000 ------- 2 1.0 2.0 137 137
- 0.274 1 2 cbr 1000 ------- 2 1.0 2.0 137 137
r 0.2748 1 2 cbr 1000 ------- 2 1.0 2.0 132 132
+ 0.276 1 2 cbr 1000 ------- 2 1.0 2.0 138 138
- 0.276 1 2 cbr 1000 ------- 2 1.0 2.0 138 138
r 0.2768 1 2 cbr 1000 ------- 2 1.0 2.0 133 133
+ 0.278 1 2 cbr 1000 ------- 2 1.0 2.0 139 139
- 0.278 1 2 cbr 1000 ------- 2 1.0 2.0 139 139
r 0.2788 1 2 cbr 1000 ------- 2 1.0 2.0 134 134
+ 0.28 1 2 cbr 1000 ------- 2 1.0 2.0 140 140
- 0.28 1 2 cbr 1000 ------- 2 1.0 2.0 140 140
r 0.2808 1 2 cbr 1000 ------- 2 1.0 2.0 135 135
+ 0.282 1 2 cbr 1000 ------- 2 1.0 2.0 141 141
- 0.282 1 2 cbr 1000 ------- 2 1.0 2.0 141 141
r 0.2828 1 2 cbr 1000 ------- 2 1.0 2.0 136 136
+ 0.284 1 2 cbr 1000 ------- 2 1.0 2.0 142 142
- 0.284 1 2 cbr 1000 ------- 2 1.0 2.0 142 142
r 0.2848 1 2 cbr 1000 ------- 2 1.0 2.0 137 137
+ 0.286 1 2 cbr 1000 ------- 2 1.0 2.0 143 143
- 0.286 1 2 cbr 1000 ------- 2 1.0 2.0 143 143
r 0.2868 1 2 cbr 1000 ------- 2 1.0 2.0 138 138
+ 0.288 1 2 cbr 1000 ------- 2 1.0 2.0 144 144
- 0.288 1 2 cbr 1000 ------- 2 1.0 2.0 144 144
r 0.2888 1 2 cbr 1000 ------- 2 1.0 2.0 139 139
+ 0.29 1 2 cbr 1000 ------- 2 1.0 2.0 145 145
- 0.29 1 2 cbr 1000 ------- 2 1.0 2.0 145 145
r 0.2908 1 2 cbr 1000 ------- 2 1.0 2.0 140 140
+ 0.292 1 2 cbr 1000 ------- 2 1.0 2.0 146 146
- 0.292 1 2 cbr 1000 ------- 2 1.0 2.0 146 146
r 0.2928 1 2 cbr 1000 ------- 2 1.0 2.0 141 141
+ 0.294 1 2 cbr 1000 ------- 2 1.0 2.0 147 147
- 0.294 1 2 cbr 1000 ------- 2 1.0 2.0 147 147
r 0.2948 1 2 cbr 1000 ------- 2 1.0 2.0 142 142
+ 0.296 1 2 cbr 1000 ------- 2 1.0 2.0 148 148
- 0.296 1 2 cbr 1000 ------- 2 1.0 2.0 148 148
r 0.2968 1 2 cbr 1000 ------- 2 1.0 2.0 143 143
+ 0.298 1 2 cbr 1000 ------- 2 1.0 2.0 149 149
- 0.298 1 2 cbr 1000 ------- 2 1.0 2.0 149 149
r 0.2988 1 2 cbr 1000 ------- 2 1.0 2.0 144 144
+ 0.3 1 2 cbr 1000 ------- 2 1.0 2.0 150 150
- 0.3 1 2 cbr 1000 ------- 2 1.0 2.0 150 150
r 0.3008 1 2 cbr 1000 ------- 2 1.0 2.0 145 145
+ 0.302 1 2 cbr 1000 ------- 2 1.0 2.0 151 151
- 0.302 1 2 cbr 1000 ------- 2 1.0 2.0 151 151
r 0.3028 1 2 cbr 1000 ------- 2 1.0 2.0 146 146
+ 0.304 1 2 cbr 1000 ------- 2 1.0 2.0 152 152
- 0.304 1 2 cbr 1000 ------- 2 1.0 2.0 152 152
r 0.3048 1 2 cbr 1000 ------- 2 1.0 2.0 147 147
+ 0.306 1 2 cbr 1000 ------- 2 1.0 2.0 153 153
- 0.306 1 2 cbr 1000 ------- 2 1.0 2.0 153 153
r 0.3068 1 2 cbr 1000 ------- 2 1.0 2.0 148 148
+ 0.308 1 2 cbr 1000 ------- 2 1.0 2.0 154 154
- 0.308 1 2 cbr 1000 ------- 2 1.0 2.0 154 154
r 0.3088 1 2 cbr 1000 ------- 2 1.0 2.0 149 149
+ 0.31 1 2 cbr 1000 ------- 2 1.0 2.0 155 155
- 0.31 1 2 cbr 1000 ------- 2 1.0 2.0 155 155
r 0.3108 1 2 cbr 1000 ------- 2 1.0 2.0 150 150
+ 0.312 1 2 cbr 1000 ------- 2 1.0 2.0 156 156
- 0.312 1 2 cbr 1000 ------- 2 1.0 2.0 156 156
r 0.3128 1 2 cbr 1000 ------- 2 1.0 2.0 151 151
+ 0.314 1 2 cbr 1000 ------- 2 1.0 2.0 157 157
- 0.314 1 2 cbr 1000 ------- 2 1.0 2.0 157 157
r 0.3148 1 2 cbr 1000 ------- 2 1.0 2.0 152 152
+ 0.316 1 2 cbr 1000 ------- 2 1.0 2.0 158 158
- 0.316 1 2 cbr 1000 ------- 2 1.0 2.0 158 158
r 0.3168 1 2 cbr 1000 ------- 2 1.0 2.0 153 153
+ 0.318 1 2 cbr 1000 ------- 2 1.0 2.0 159 159
- 0.318 1 2 cbr 1000 ------- 2 1.0 2.0 159 159
r 0.3188 1 2 cbr 1000 ------- 2 1.0 2.0 154 154
+ 0.32 1 2 cbr 1000 ------- 2 1.0 2.0 160 160
- 0.32 1 2 cbr 1000 ------- 2 1.0 2.0 160 160
r 0.3208 1 2 cbr 1000 ------- 2 1.0 2.0 155 155
+ 0.322 1 2 cbr 1000 ------- 2 1.0 2.0 161 161
- 0.322 1 2 cbr 1000 ------- 2 1.0 2.0 161 161
r 0.3228 1 2 cbr 1000 ------- 2 1.0 2.0 156 156
+ 0.324 1 2 cbr 1000 ------- 2 1.0 2.0 162 162
- 0.324 1 2 cbr 1000 ------- 2 1.0 2.0 162 162
r 0.3248 1 2 cbr 1000 ------- 2 1.0 2.0 157 157
+ 0.326 1 2 cbr 1000 ------- 2 1.0 2.0 163 163
- 0.326 1 2 cbr 1000 ------- 2 1.0 2.0 163 163
r 0.3268 1 2 cbr 1000 ------- 2 1.0 2.0 158 158
+ 0.328 1 2 cbr 1000 ------- 2 1.0 2.0 164 164
- 0.328 1 2 cbr 1000 ------- 2 1.0 2.0 164 164
r 0.3288 1 2 cbr 1000 ------- 2 1.0 2.0 159 159
+ 0.33 1 2 cbr 1000 ------- 2 1.0 2.0 165 165
- 0.33 1 2 cbr 1000 ------- 2 1.0 2.0 165 165
r 0.3308 1 2 cbr 1000 ------- 2 1.0 2.0 160 160
+ 0.332 1 2 cbr 1000 ------- 2 1.0 2.0 166 166
- 0.332 1 2 cbr 1000 ------- 2 1.0 2.0 166 166
r 0.3328 1 2 cbr 1000 ------- 2 1.0 2.0 161 161
+ 0.334 1 2 cbr 1000 ------- 2 1.0 2.0 167 167
- 0.334 1 2 cbr 1000 ------- 2 1.0 2.0 167 167
r 0.3348 1 2 cbr 1000 ------- 2 1.0 2.0 162 162
+ 0.336 1 2 cbr 1000 ------- 2 1.0 2.0 168 168
- 0.336 1 2 cbr 1000 ------- 2 1.0 2.0 168 168
r 0.3368 1 2 cbr 1000 ------- 2 1.0 2.0 163 163
+ 0.338 1 2 cbr 1000 ------- 2 1.0 2.0 169 169
- 0.338 1 2 cbr 1000 ------- 2 1.0 2.0 169 169
r 0.3388 1 2 cbr 1000 ------- 2 1.0 2.0 164 164
+ 0.34 1 2 cbr 1000 ------- 2 1.0 2.0 170 170
- 0.34 1 2 cbr 1000 ------- 2 1.0 2.0 170 170
r 0.3408 1 2 cbr 1000 ------- 2 1.0 2.0 165 165
+ 0.342 1 2 cbr 1000 ------- 2 1.0 2.0 171 171
- 0.342 1 2 cbr 1000 ------- 2 1.0 2.0 171 171
r 0.3428 1 2 cbr 1000 ------- 2 1.0 2.0 166 166
+ 0.344 1 2 cbr 1000 ------- 2 1.0 2.0 172 172
- 0.344 1 2 cbr 1000 ------- 2 1.0 2.0 172 172
r 0.3448 1 2 cbr 1000 ------- 2 1.0 2.0 167 167
+ 0.346 1 2 cbr 1000 ------- 2 1.0 2.0 173 173
- 0.346 1 2 cbr 1000 ------- 2 1.0 2.0 173 173
r 0.3468 1 2 cbr 1000 ------- 2 1.0 2.0 168 168
+ 0.348 1 2 cbr 1000 ------- 2 1.0 2.0 174 174
- 0.348 1 2 cbr 1000 ------- 2 1.0 2.0 174 174
r 0.3488 1 2 cbr 1000 ------- 2 1.0 2.0 169 169
+ 0.35 1 2 cbr 1000 ------- 2 1.0 2.0 175 175
- 0.35 1 2 cbr 1000 ------- 2 1.0 2.0 175 175
r 0.3508 1 2 cbr 1000 ------- 2 1.0 2.0 170 170
+ 0.352 1 2 cbr 1000 ------- 2 1.0 2.0 176 176
- 0.352 1 2 cbr 1000 ------- 2 1.0 2.0 176 176
r 0.3528 1 2 cbr 1000 ------- 2 1.0 2.0 171 171
+ 0.354 1 2 cbr 1000 ------- 2 1.0 2.0 177 177
- 0.354 1 2 cbr 1000 ------- 2 1.0 2.0 177 177
r 0.3548 1 2 cbr 1000 ------- 2 1.0 2.0 172 172
+ 0.356 1 2 cbr 1000 ------- 2 1.0 2.0 178 178
- 0.356 1 2 cbr 1000 ------- 2 1.0 2.0 178 178
r 0.3568 1 2 cbr 1000 ------- 2 1.0 2.0 173 173
+ 0.358 1 2 cbr 1000 ------- 2 1.0 2.0 179 179
- 0.358 1 2 cbr 1000 ------- 2 1.0 2.0 179 179
r 0.3588 1 2 cbr 1000 ------- 2 1.0 2.0 174 174
+ 0.36 1 2 cbr 1000 ------- 2 1.0 2.0 180 180
- 0.36 1 2 cbr 1000 ------- 2 1.0 2.0 180 180
r 0.3608 1 2 cbr 1000 ------- 2 1.0 2.0 175 175
+ 0.362 1 2 cbr 1000 ------- 2 1.0 2.0 181 181
- 0.362 1 2 cbr 1000 ------- 2 1.0 2.0 181 181
r 0.3628 1 2 cbr 1000 ------- 2 1.0 2.0 176 176
+ 0.364 1 2 cbr 1000 ------- 2 1.0 2.0 182 182
- 0.364 1 2 cbr 1000 ------- 2 1.0 2.0 182 182
r 0.3648 1 2 cbr 1000 ------- 2 1.0 2.0 177 177
+ 0.366 1 2 cbr 1000 ------- 2 1.0 2.0 183 183
- 0.366 1 2 cbr 1000 ------- 2 1.0 2.0 183 183
r 0.3668 1 2 cbr 1000 ------- 2 1.0 2.0 178 178
+ 0.368 1 2 cbr 1000 ------- 2 1.0 2.0 184 184
- 0.368 1 2 cbr 1000 ------- 2 1.0 2.0 184 184
r 0.3688 1 2 cbr 1000 ------- 2 1.0 2.0 179 179
+ 0.37 1 2 cbr 1000 ------- 2 1.0 2.0 185 185
- 0.37 1 2 cbr 1000 ------- 2 1.0 2.0 185 185
r 0.3708 1 2 cbr 1000 ------- 2 1.0 2.0 180 180
+ 0.372 1 2 cbr 1000 ------- 2 1.0 2.0 186 186
- 0.372 1 2 cbr 1000 ------- 2 1.0 2.0 186 186
r 0.3728 1 2 cbr 1000 ------- 2 1.0 2.0 181 181
+ 0.374 1 2 cbr 1000 ------- 2 1.0 2.0 187 187
- 0.374 1 2 cbr 1000 ------- 2 1.0 2.0 187 187
r 0.3748 1 2 cbr 1000 ------- 2 1.0 2.0 182 182
+ 0.376 1 2 cbr 1000 ------- 2 1.0 2.0 188 188
- 0.376 1 2 cbr 1000 ------- 2 1.0 2.0 188 188
r 0.3768 1 2 cbr 1000 ------- 2 1.0 2.0 183 183
+ 0.378 1 2 cbr 1000 ------- 2 1.0 2.0 189 189
- 0.378 1 2 cbr 1000 ------- 2 1.0 2.0 189 189
r 0.3788 1 2 cbr 1000 ------- 2 1.0 2.0 184 184
+ 0.38 1 2 cbr 1000 ------- 2 1.0 2.0 190 190
- 0.38 1 2 cbr 1000 ------- 2 1.0 2.0 190 190
r 0.3808 1 2 cbr 1000 ------- 2 1.0 2.0 185 185
+ 0.382 1 2 cbr 1000 ------- 2 1.0 2.0 191 191
- 0.382 1 2 cbr 1000 ------- 2 1.0 2.0 191 191
r 0.3828 1 2 cbr 1000 ------- 2 1.0 2.0 186 186
+ 0.384 1 2 cbr 1000 ------- 2 1.0 2.0 192 192
- 0.384 1 2 cbr 1000 ------- 2 1.0 2.0 192 192
r 0.3848 1 2 cbr 1000 ------- 2 1.0 2.0 187 187
+ 0.386 1 2 cbr 1000 ------- 2 1.0 2.0 193 193
- 0.386 1 2 cbr 1000 ------- 2 1.0 2.0 193 193
r 0.3868 1 2 cbr 1000 ------- 2 1.0 2.0 188 188
+ 0.388 1 2 cbr 1000 ------- 2 1.0 2.0 194 194
- 0.388 1 2 cbr 1000 ------- 2 1.0 2.0 194 194
r 0.3888 1 2 cbr 1000 ------- 2 1.0 2.0 189 189
+ 0.39 1 2 cbr 1000 ------- 2 1.0 2.0 195 195
- 0.39 1 2 cbr 1000 ------- 2 1.0 2.0 195 195
r 0.3908 1 2 cbr 1000 ------- 2 1.0 2.0 190 190
+ 0.392 1 2 cbr 1000 ------- 2 1.0 2.0 196 196
- 0.392 1 2 cbr 1000 ------- 2 1.0 2.0 196 196
r 0.3928 1 2 cbr 1000 ------- 2 1.0 2.0 191 191
+ 0.394 1 2 cbr 1000 ------- 2 1.0 2.0 197 197
- 0.394 1 2 cbr 1000 ------- 2 1.0 2.0 197 197
r 0.3948 1 2 cbr 1000 ------- 2 1.0 2.0 192 192
+ 0.396 1 2 cbr 1000 ------- 2 1.0 2.0 198 198
- 0.396 1 2 cbr 1000 ------- 2 1.0 2.0 198 198
r 0.3968 1 2 cbr 1000 ------- 2 1.0 2.0 193 193
+ 0.398 1 2 cbr 1000 ------- 2 1.0 2.0 199 199
- 0.398 1 2 cbr 1000 ------- 2 1.0 2.0 199 199
r 0.3988 1 2 cbr 1000 ------- 2 1.0 2.0 194 194
+ 0.4 1 2 cbr 1000 ------- 2 1.0 2.0 200 200
- 0.4 1 2 cbr 1000 ------- 2 1.0 2.0 200 200
r 0.4008 1 2 cbr 1000 ------- 2 1.0 2.0 195 195
+ 0.402 1 2 cbr 1000 ------- 2 1.0 2.0 201 201
- 0.402 1 2 cbr 1000 ------- 2 1.0 2.0 201 201
r 0.4028 1 2 cbr 1000 ------- 2 1.0 2.0 196 196
+ 0.404 1 2 cbr 1000 ------- 2 1.0 2.0 202 202
- 0.404 1 2 cbr 1000 ------- 2 1.0 2.0 202 202
r 0.4048 1 2 cbr 1000 ------- 2 1.0 2.0 197 197
+ 0.406 1 2 cbr 1000 ------- 2 1.0 2.0 203 203
- 0.406 1 2 cbr 1000 ------- 2 1.0 2.0 203 203
r 0.4068 1 2 cbr 1000 ------- 2 1.0 2.0 198 198
+ 0.408 1 2 cbr 1000 ------- 2 1.0 2.0 204 204
- 0.408 1 2 cbr 1000 ------- 2 1.0 2.0 204 204
r 0.4088 1 2 cbr 1000 ------- 2 1.0 2.0 199 199
+ 0.41 1 2 cbr 1000 ------- 2 1.0 2.0 205 205
- 0.41 1 2 cbr 1000 ------- 2 1.0 2.0 205 205
r 0.4108 1 2 cbr 1000 ------- 2 1.0 2.0 200 200
+ 0.412 1 2 cbr 1000 ------- 2 1.0 2.0 206 206
- 0.412 1 2 cbr 1000 ------- 2 1.0 2.0 206 206
r 0.4128 1 2 cbr 1000 ------- 2 1.0 2.0 201 201
+ 0.414 1 2 cbr 1000 ------- 2 1.0 2.0 207 207
- 0.414 1 2 cbr 1000 ------- 2 1.0 2.0 207 207
r 0.4148 1 2 cbr 1000 ------- 2 1.0 2.0 202 202
+ 0.416 1 2 cbr 1000 ------- 2 1.0 2.0 208 208
- 0.416 1 2 cbr 1000 ------- 2 1.0 2.0 208 208
r 0.4168 1 2 cbr 1000 ------- 2 1.0 2.0 203 203
+ 0.418 1 2 cbr 1000 ------- 2 1.0 2.0 209 209
- 0.418 1 2 cbr 1000 ------- 2 1.0 2.0 209 209
r 0.4188 1 2 cbr 1000 ------- 2 1.0 2.0 204 204
+ 0.42 1 2 cbr 1000 ------- 2 1.0 2.0 210 210
- 0.42 1 2 cbr 1000 ------- 2 1.0 2.0 210 210
r 0.4208 1 2 cbr 1000 ------- 2 1.0 2.0 205 205
+ 0.422 1 2 cbr 1000 ------- 2 1.0 2.0 211 211
- 0.422 1 2 cbr 1000 ------- 2 1.0 2.0 211 211
r 0.4228 1 2 cbr 1000 ------- 2 1.0 2.0 206 206
+ 0.424 1 2 cbr 1000 ------- 2 1.0 2.0 212 212
- 0.424 1 2 cbr 1000 ------- 2 1.0 2.0 212 212
r 0.4248 1 2 cbr 1000 ------- 2 1.0 2.0 207 207
+ 0.426 1 2 cbr 1000 ------- 2 1.0 2.0 213 213
- 0.426 1 2 cbr 1000 ------- 2 1.0 2.0 213 213
r 0.4268 1 2 cbr 1000 ------- 2 1.0 2.0 208 208
+ 0.428 1 2 cbr 1000 ------- 2 1.0 2.0 214 214
- 0.428 1 2 cbr 1000 ------- 2 1.0 2.0 214 214
r 0.4288 1 2 cbr 1000 ------- 2 1.0 2.0 209 209
+ 0.43 1 2 cbr 1000 ------- 2 1.0 2.0 215 215
- 0.43 1 2 cbr 1000 ------- 2 1.0 2.0 215 215
r 0.4308 1 2 cbr 1000 ------- 2 1.0 2.0 210 210
+ 0.432 1 2 cbr 1000 ------- 2 1.0 2.0 216 216
- 0.432 1 2 cbr 1000 ------- 2 1.0 2.0 216 216
r 0.4328 1 2 cbr 1000 ------- 2 1.0 2.0 211 211
+ 0.434 1 2 cbr 1000 ------- 2 1.0 2.0 217 217
- 0.434 1 2 cbr 1000 ------- 2 1.0 2.0 217 217
r 0.4348 1 2 cbr 1000 ------- 2 1.0 2.0 212 212