+ 0 1 2 cbr 1000 ------- 2 1.0 2.0 0 0
- 0 1 2 cbr 1000 ------- 2 1.0 2.0 0 0
+ 0.000889 1 2 cbr 1000 ------- 2 1.0 2.0 1 1
- 0.000889 1 2 cbr 1000 ------- 2 1.0 2.0 1 1
+ 0.001778 1 2 cbr 1000 ------- 2 1.0 2.0 2 2
- 0.001778 1 2 cbr 1000 ------- 2 1.0 2.0 2 2
+ 0.002667 1 2 cbr 1000 ------- 2 1.0 2.0 3 3
- 0.002667 1 2 cbr 1000 ------- 2 1.0 2.0 3 3
+ 0.003556 1 2 cbr 1000 ------- 2 1.0 2.0 4 4
- 0.003556 1 2 cbr 1000 ------- 2 1.0 2.0 4 4
+ 0.004444 1 2 cbr 1000 ------- 2 1.0 2.0 5 5
- 0.004444 1 2 cbr 1000 ------- 2 1.0 2.0 5 5
+ 0.005333 1 2 cbr 1000 ------- 2 1.0 2.0 6 6
- 0.005333 1 2 cbr 1000 ------- 2 1.0 2.0 6 6
+ 0.006222 1 2 cbr 1000 ------- 2 1.0 2.0 7 7
- 0.006222 1 2 cbr 1000 ------- 2 1.0 2.0 7 7
+ 0.007111 1 2 cbr 1000 ------- 2 1.0 2.0 8 8
- 0.007111 1 2 cbr 1000 ------- 2 1.0 2.0 8 8
+ 0.008 1 2 cbr 1000 ------- 2 1.0 2.0 9 9
- 0.008 1 2 cbr 1000 ------- 2 1.0 2.0 9 9
+ 0.008889 1 2 cbr 1000 ------- 2 1.0 2.0 10 10
- 0.008889 1 2 cbr 1000 ------- 2 1.0 2.0 10 10
+ 0.009778 1 2 cbr 1000 ------- 2 1.0 2.0 11 11
- 0.009778 1 2 cbr 1000 ------- 2 1.0 2.0 11 11
+ 0.010667 1 2 cbr 1000 ------- 2 1.0 2.0 12 12
- 0.010667 1 2 cbr 1000 ------- 2 1.0 2.0 12 12
r 0.0108 1 2 cbr 1000 ------- 2 1.0 2.0 0 0
+ 0.011556 1 2 cbr 1000 ------- 2 1.0 2.0 13 13
- 0.011556 1 2 cbr 1000 ------- 2 1.0 2.0 13 13
r 0.011689 1 2 cbr 1000 ------- 2 1.0 2.0 1 1
+ 0.012444 1 2 cbr 1000 ------- 2 1.0 2.0 14 14
- 0.012444 1 2 cbr 1000 ------- 2 1.0 2.0 14 14
r 0.012578 1 2 cbr 1000 ------- 2 1.0 2.0 2 2
+ 0.013333 1 2 cbr 1000 ------- 2 1.0 2.0 15 15
- 0.013333 1 2 cbr 1000 ------- 2 1.0 2.0 15 15
r 0.013467 1 2 cbr 1000 ------- 2 1.0 2.0 3 3
+ 0.014222 1 2 cbr 1000 ------- 2 1.0 2.0 16 16
- 0.014222 1 2 cbr 1000 ------- 2 1.0 2.0 16 16
r 0.014356 1 2 cbr 1000 ------- 2 1.0 2.0 4 4
+ 0.015111 1 2 cbr 1000 ------- 2 1.0 2.0 17 17
- 0.015111 1 2 cbr 1000 ------- 2 1.0 2.0 17 17
r 0.015244 1 2 cbr 1000 ------- 2 1.0 2.0 5 5
+ 0.016 1 2 cbr 1000 ------- 2 1.0 2.0 18 18
- 0.016 1 2 cbr 1000 ------- 2 1.0 2.0 18 18
r 0.016133 1 2 cbr 1000 ------- 2 1.0 2.0 6 6
+ 0.016889 1 2 cbr 1000 ------- 2 1.0 2.0 19 19
- 0.016889 1 2 cbr 1000 ------- 2 1.0 2.0 19 19
r 0.017022 1 2 cbr 1000 ------- 2 1.0 2.0 7 7
+ 0.017778 1 2 cbr 1000 ------- 2 1.0 2.0 20 20
- 0.017778 1 2 cbr 1000 ------- 2 1.0 2.0 20 20
r 0.017911 1 2 cbr 1000 ------- 2 1.0 2.0 8 8
+ 0.018667 1 2 cbr 1000 ------- 2 1.0 2.0 21 21
- 0.018667 1 2 cbr 1000 ------- 2 1.0 2.0 21 21
r 0.0188 1 2 cbr 1000 ------- 2 1.0 2.0 9 9
+ 0.019556 1 2 cbr 1000 ------- 2 1.0 2.0 22 22
- 0.019556 1 2 cbr 1000 ------- 2 1.0 2.0 22 22
r 0.019689 1 2 cbr 1000 ------- 2 1.0 2.0 10 10
+ 0.020444 1 2 cbr 1000 ------- 2 1.0 2.0 23 23
- 0.020444 1 2 cbr 1000 ------- 2 1.0 2.0 23 23
r 0.020578 1 2 cbr 1000 ------- 2 1.0 2.0 11 11
+ 0.021333 1 2 cbr 1000 ------- 2 1.0 2.0 24 24
- 0.021333 1 2 cbr 1000 ------- 2 1.0 2.0 24 24
r 0.021467 1 2 cbr 1000 ------- 2 1.0 2.0 12 12
+ 0.022222 1 2 cbr 1000 ------- 2 1.0 2.0 25 25
- 0.022222 1 2 cbr 1000 ------- 2 1.0 2.0 25 25
r 0.022356 1 2 cbr 1000 ------- 2 1.0 2.0 13 13
+ 0.023111 1 2 cbr 1000 ------- 2 1.0 2.0 26 26
- 0.023111 1 2 cbr 1000 ------- 2 1.0 2.0 26 26
r 0.023244 1 2 cbr 1000 ------- 2 1.0 2.0 14 14
+ 0.024 1 2 cbr 1000 ------- 2 1.0 2.0 27 27
- 0.024 1 2 cbr 1000 ------- 2 1.0 2.0 27 27
r 0.024133 1 2 cbr 1000 ------- 2 1.0 2.0 15 15
+ 0.024889 1 2 cbr 1000 ------- 2 1.0 2.0 28 28
- 0.024889 1 2 cbr 1000 ------- 2 1.0 2.0 28 28
r 0.025022 1 2 cbr 1000 ------- 2 1.0 2.0 16 16
+ 0.025778 1 2 cbr 1000 ------- 2 1.0 2.0 29 29
- 0.025778 1 2 cbr 1000 ------- 2 1.0 2.0 29 29
r 0.025911 1 2 cbr 1000 ------- 2 1.0 2.0 17 17
+ 0.026667 1 2 cbr 1000 ------- 2 1.0 2.0 30 30
- 0.026667 1 2 cbr 1000 ------- 2 1.0 2.0 30 30
r 0.0268 1 2 cbr 1000 ------- 2 1.0 2.0 18 18
+ 0.027556 1 2 cbr 1000 ------- 2 1.0 2.0 31 31
- 0.027556 1 2 cbr 1000 ------- 2 1.0 2.0 31 31
r 0.027689 1 2 cbr 1000 ------- 2 1.0 2.0 19 19
+ 0.028444 1 2 cbr 1000 ------- 2 1.0 2.0 32 32
- 0.028444 1 2 cbr 1000 ------- 2 1.0 2.0 32 32
r 0.028578 1 2 cbr 1000 ------- 2 1.0 2.0 20 20
+ 0.029333 1 2 cbr 1000 ------- 2 1.0 2.0 33 33
- 0.029333 1 2 cbr 1000 ------- 2 1.0 2.0 33 33
r 0.029467 1 2 cbr 1000 ------- 2 1.0 2.0 21 21
+ 0.030222 1 2 cbr 1000 ------- 2 1.0 2.0 34 34
- 0.030222 1 2 cbr 1000 ------- 2 1.0 2.0 34 34
r 0.030356 1 2 cbr 1000 ------- 2 1.0 2.0 22 22
+ 0.031111 1 2 cbr 1000 ------- 2 1.0 2.0 35 35
- 0.031111 1 2 cbr 1000 ------- 2 1.0 2.0 35 35
r 0.031244 1 2 cbr 1000 ------- 2 1.0 2.0 23 23
+ 0.032 1 2 cbr 1000 ------- 2 1.0 2.0 36 36
- 0.032 1 2 cbr 1000 ------- 2 1.0 2.0 36 36
r 0.032133 1 2 cbr 1000 ------- 2 1.0 2.0 24 24
+ 0.032889 1 2 cbr 1000 ------- 2 1.0 2.0 37 37
- 0.032889 1 2 cbr 1000 ------- 2 1.0 2.0 37 37
r 0.033022 1 2 cbr 1000 ------- 2 1.0 2.0 25 25
+ 0.033778 1 2 cbr 1000 ------- 2 1.0 2.0 38 38
- 0.033778 1 2 cbr 1000 ------- 2 1.0 2.0 38 38
r 0.033911 1 2 cbr 1000 ------- 2 1.0 2.0 26 26
+ 0.034667 1 2 cbr 1000 ------- 2 1.0 2.0 39 39
- 0.034667 1 2 cbr 1000 ------- 2 1.0 2.0 39 39
r 0.0348 1 2 cbr 1000 ------- 2 1.0 2.0 27 27
+ 0.035556 1 2 cbr 1000 ------- 2 1.0 2.0 40 40
- 0.035556 1 2 cbr 1000 ------- 2 1.0 2.0 40 40
r 0.035689 1 2 cbr 1000 ------- 2 1.0 2.0 28 28
+ 0.036444 1 2 cbr 1000 ------- 2 1.0 2.0 41 41
- 0.036444 1 2 cbr 1000 ------- 2 1.0 2.0 41 41
r 0.036578 1 2 cbr 1000 ------- 2 1.0 2.0 29 29
+ 0.037333 1 2 cbr 1000 ------- 2 1.0 2.0 42 42
- 0.037333 1 2 cbr 1000 ------- 2 1.0 2.0 42 42
r 0.037467 1 2 cbr 1000 ------- 2 1.0 2.0 30 30
+ 0.038222 1 2 cbr 1000 ------- 2 1.0 2.0 43 43
- 0.038222 1 2 cbr 1000 ------- 2 1.0 2.0 43 43
r 0.038356 1 2 cbr 1000 ------- 2 1.0 2.0 31 31
+ 0.039111 1 2 cbr 1000 ------- 2 1.0 2.0 44 44
- 0.039111 1 2 cbr 1000 ------- 2 1.0 2.0 44 44
r 0.039244 1 2 cbr 1000 ------- 2 1.0 2.0 32 32
+ 0.04 1 2 cbr 1000 ------- 2 1.0 2.0 45 45
- 0.04 1 2 cbr 1000 ------- 2 1.0 2.0 45 45
r 0.040133 1 2 cbr 1000 ------- 2 1.0 2.0 33 33
+ 0.040889 1 2 cbr 1000 ------- 2 1.0 2.0 46 46
- 0.040889 1 2 cbr 1000 ------- 2 1.0 2.0 46 46
r 0.041022 1 2 cbr 1000 ------- 2 1.0 2.0 34 34
+ 0.041778 1 2 cbr 1000 ------- 2 1.0 2.0 47 47
- 0.041778 1 2 cbr 1000 ------- 2 1.0 2.0 47 47
r 0.041911 1 2 cbr 1000 ------- 2 1.0 2.0 35 35
+ 0.042667 1 2 cbr 1000 ------- 2 1.0 2.0 48 48
- 0.042667 1 2 cbr 1000 ------- 2 1.0 2.0 48 48
r 0.0428 1 2 cbr 1000 ------- 2 1.0 2.0 36 36
+ 0.043556 1 2 cbr 1000 ------- 2 1.0 2.0 49 49
- 0.043556 1 2 cbr 1000 ------- 2 1.0 2.0 49 49
r 0.043689 1 2 cbr 1000 ------- 2 1.0 2.0 37 37
+ 0.044444 1 2 cbr 1000 ------- 2 1.0 2.0 50 50
- 0.044444 1 2 cbr 1000 ------- 2 1.0 2.0 50 50
r 0.044578 1 2 cbr 1000 ------- 2 1.0 2.0 38 38
+ 0.045333 1 2 cbr 1000 ------- 2 1.0 2.0 51 51
- 0.045333 1 2 cbr 1000 ------- 2 1.0 2.0 51 51
r 0.045467 1 2 cbr 1000 ------- 2 1.0 2.0 39 39
+ 0.046222 1 2 cbr 1000 ------- 2 1.0 2.0 52 52
- 0.046222 1 2 cbr 1000 ------- 2 1.0 2.0 52 52
r 0.046356 1 2 cbr 1000 ------- 2 1.0 2.0 40 40
+ 0.047111 1 2 cbr 1000 ------- 2 1.0 2.0 53 53
- 0.047111 1 2 cbr 1000 ------- 2 1.0 2.0 53 53
r 0.047244 1 2 cbr 1000 ------- 2 1.0 2.0 41 41
+ 0.048 1 2 cbr 1000 ------- 2 1.0 2.0 54 54
- 0.048 1 2 cbr 1000 ------- 2 1.0 2.0 54 54
r 0.048133 1 2 cbr 1000 ------- 2 1.0 2.0 42 42
+ 0.048889 1 2 cbr 1000 ------- 2 1.0 2.0 55 55
- 0.048889 1 2 cbr 1000 ------- 2 1.0 2.0 55 55
r 0.049022 1 2 cbr 1000 ------- 2 1.0 2.0 43 43
+ 0.049778 1 2 cbr 1000 ------- 2 1.0 2.0 56 56
- 0.049778 1 2 cbr 1000 ------- 2 1.0 2.0 56 56
r 0.049911 1 2 cbr 1000 ------- 2 1.0 2.0 44 44
+ 0.050667 1 2 cbr 1000 ------- 2 1.0 2.0 57 57
- 0.050667 1 2 cbr 1000 ------- 2 1.0 2.0 57 57
r 0.0508 1 2 cbr 1000 ------- 2 1.0 2.0 45 45
+ 0.051556 1 2 cbr 1000 ------- 2 1.0 2.0 58 58
- 0.051556 1 2 cbr 1000 ------- 2 1.0 2.0 58 58
r 0.051689 1 2 cbr 1000 ------- 2 1.0 2.0 46 46
+ 0.052444 1 2 cbr 1000 ------- 2 1.0 2.0 59 59
- 0.052444 1 2 cbr 1000 ------- 2 1.0 2.0 59 59
r 0.052578 1 2 cbr 1000 ------- 2 1.0 2.0 47 47
+ 0.053333 1 2 cbr 1000 ------- 2 1.0 2.0 60 60
- 0.053333 1 2 cbr 1000 ------- 2 1.0 2.0 60 60
r 0.053467 1 2 cbr 1000 ------- 2 1.0 2.0 48 48
+ 0.054222 1 2 cbr 1000 ------- 2 1.0 2.0 61 61
- 0.054222 1 2 cbr 1000 ------- 2 1.0 2.0 61 61
r 0.054356 1 2 cbr 1000 ------- 2 1.0 2.0 49 49
+ 0.055111 1 2 cbr 1000 ------- 2 1.0 2.0 62 62
- 0.055111 1 2 cbr 1000 ------- 2 1.0 2.0 62 62
r 0.055244 1 2 cbr 1000 ------- 2 1.0 2.0 50 50
+ 0.056 1 2 cbr 1000 ------- 2 1.0 2.0 63 63
- 0.056 1 2 cbr 1000 ------- 2 1.0 2.0 63 63
r 0.056133 1 2 cbr 1000 ------- 2 1.0 2.0 51 51
+ 0.056889 1 2 cbr 1000 ------- 2 1.0 2.0 64 64
- 0.056889 1 2 cbr 1000 ------- 2 1.0 2.0 64 64
r 0.057022 1 2 cbr 1000 ------- 2 1.0 2.0 52 52
+ 0.057778 1 2 cbr 1000 ------- 2 1.0 2.0 65 65
- 0.057778 1 2 cbr 1000 ------- 2 1.0 2.0 65 65
r 0.057911 1 2 cbr 1000 ------- 2 1.0 2.0 53 53
+ 0.058667 1 2 cbr 1000 ------- 2 1.0 2.0 66 66
- 0.058667 1 2 cbr 1000 ------- 2 1.0 2.0 66 66
r 0.0588 1 2 cbr 1000 ------- 2 1.0 2.0 54 54
+ 0.059556 1 2 cbr 1000 ------- 2 1.0 2.0 67 67
- 0.059556 1 2 cbr 1000 ------- 2 1.0 2.0 67 67
r 0.059689 1 2 cbr 1000 ------- 2 1.0 2.0 55 55
+ 0.060444 1 2 cbr 1000 ------- 2 1.0 2.0 68 68
- 0.060444 1 2 cbr 1000 ------- 2 1.0 2.0 68 68
r 0.060578 1 2 cbr 1000 ------- 2 1.0 2.0 56 56
+ 0.061333 1 2 cbr 1000 ------- 2 1.0 2.0 69 69
- 0.061333 1 2 cbr 1000 ------- 2 1.0 2.0 69 69
r 0.061467 1 2 cbr 1000 ------- 2 1.0 2.0 57 57
+ 0.062222 1 2 cbr 1000 ------- 2 1.0 2.0 70 70
- 0.062222 1 2 cbr 1000 ------- 2 1.0 2.0 70 70
r 0.062356 1 2 cbr 1000 ------- 2 1.0 2.0 58 58
+ 0.063111 1 2 cbr 1000 ------- 2 1.0 2.0 71 71
- 0.063111 1 2 cbr 1000 ------- 2 1.0 2.0 71 71
r 0.063244 1 2 cbr 1000 ------- 2 1.0 2.0 59 59
+ 0.064 1 2 cbr 1000 ------- 2 1.0 2.0 72 72
- 0.064 1 2 cbr 1000 ------- 2 1.0 2.0 72 72
r 0.064133 1 2 cbr 1000 ------- 2 1.0 2.0 60 60
+ 0.064889 1 2 cbr 1000 ------- 2 1.0 2.0 73 73
- 0.064889 1 2 cbr 1000 ------- 2 1.0 2.0 73 73
r 0.065022 1 2 cbr 1000 ------- 2 1.0 2.0 61 61
+ 0.065778 1 2 cbr 1000 ------- 2 1.0 2.0 74 74
- 0.065778 1 2 cbr 1000 ------- 2 1.0 2.0 74 74
r 0.065911 1 2 cbr 1000 ------- 2 1.0 2.0 62 62
+ 0.066667 1 2 cbr 1000 ------- 2 1.0 2.0 75 75
- 0.066667 1 2 cbr 1000 ------- 2 1.0 2.0 75 75
r 0.0668 1 2 cbr 1000 ------- 2 1.0 2.0 63 63
+ 0.067556 1 2 cbr 1000 ------- 2 1.0 2.0 76 76
- 0.067556 1 2 cbr 1000 ------- 2 1.0 2.0 76 76
r 0.067689 1 2 cbr 1000 ------- 2 1.0 2.0 64 64
+ 0.068444 1 2 cbr 1000 ------- 2 1.0 2.0 77 77
- 0.068444 1 2 cbr 1000 ------- 2 1.0 2.0 77 77
r 0.068578 1 2 cbr 1000 ------- 2 1.0 2.0 65 65
+ 0.069333 1 2 cbr 1000 ------- 2 1.0 2.0 78 78
- 0.069333 1 2 cbr 1000 ------- 2 1.0 2.0 78 78
r 0.069467 1 2 cbr 1000 ------- 2 1.0 2.0 66 66
+ 0.070222 1 2 cbr 1000 ------- 2 1.0 2.0 79 79
- 0.070222 1 2 cbr 1000 ------- 2 1.0 2.0 79 79
r 0.070356 1 2 cbr 1000 ------- 2 1.0 2.0 67 67
+ 0.071111 1 2 cbr 1000 ------- 2 1.0 2.0 80 80
- 0.071111 1 2 cbr 1000 ------- 2 1.0 2.0 80 80
r 0.071244 1 2 cbr 1000 ------- 2 1.0 2.0 68 68
+ 0.072 1 2 cbr 1000 ------- 2 1.0 2.0 81 81
- 0.072 1 2 cbr 1000 ------- 2 1.0 2.0 81 81
r 0.072133 1 2 cbr 1000 ------- 2 1.0 2.0 69 69
+ 0.072889 1 2 cbr 1000 ------- 2 1.0 2.0 82 82
- 0.072889 1 2 cbr 1000 ------- 2 1.0 2.0 82 82
r 0.073022 1 2 cbr 1000 ------- 2 1.0 2.0 70 70
+ 0.073778 1 2 cbr 1000 ------- 2 1.0 2.0 83 83
- 0.073778 1 2 cbr 1000 ------- 2 1.0 2.0 83 83
r 0.073911 1 2 cbr 1000 ------- 2 1.0 2.0 71 71
+ 0.074667 1 2 cbr 1000 ------- 2 1.0 2.0 84 84
- 0.074667 1 2 cbr 1000 ------- 2 1.0 2.0 84 84
r 0.0748 1 2 cbr 1000 ------- 2 1.0 2.0 72 72
+ 0.075556 1 2 cbr 1000 ------- 2 1.0 2.0 85 85
- 0.075556 1 2 cbr 1000 ------- 2 1.0 2.0 85 85
r 0.075689 1 2 cbr 1000 ------- 2 1.0 2.0 73 73
+ 0.076444 1 2 cbr 1000 ------- 2 1.0 2.0 86 86
- 0.076444 1 2 cbr 1000 ------- 2 1.0 2.0 86 86
r 0.076578 1 2 cbr 1000 ------- 2 1.0 2.0 74 74
+ 0.077333 1 2 cbr 1000 ------- 2 1.0 2.0 87 87
- 0.077333 1 2 cbr 1000 ------- 2 1.0 2.0 87 87
r 0.077467 1 2 cbr 1000 ------- 2 1.0 2.0 75 75
+ 0.078222 1 2 cbr 1000 ------- 2 1.0 2.0 88 88
- 0.078222 1 2 cbr 1000 ------- 2 1.0 2.0 88 88
r 0.078356 1 2 cbr 1000 ------- 2 1.0 2.0 76 76
+ 0.079111 1 2 cbr 1000 ------- 2 1.0 2.0 89 89
- 0.079111 1 2 cbr 1000 ------- 2 1.0 2.0 89 89
r 0.079244 1 2 cbr 1000 ------- 2 1.0 2.0 77 77
+ 0.08 1 2 cbr 1000 ------- 2 1.0 2.0 90 90
- 0.08 1 2 cbr 1000 ------- 2 1.0 2.0 90 90
r 0.080133 1 2 cbr 1000 ------- 2 1.0 2.0 78 78
+ 0.080889 1 2 cbr 1000 ------- 2 1.0 2.0 91 91
- 0.080889 1 2 cbr 1000 ------- 2 1.0 2.0 91 91
r 0.081022 1 2 cbr 1000 ------- 2 1.0 2.0 79 79
+ 0.081778 1 2 cbr 1000 ------- 2 1.0 2.0 92 92
- 0.081778 1 2 cbr 1000 ------- 2 1.0 2.0 92 92
r 0.081911 1 2 cbr 1000 ------- 2 1.0 2.0 80 80
+ 0.082667 1 2 cbr 1000 ------- 2 1.0 2.0 93 93
- 0.082667 1 2 cbr 1000 ------- 2 1.0 2.0 93 93
r 0.0828 1 2 cbr 1000 ------- 2 1.0 2.0 81 81
+ 0.083556 1 2 cbr 1000 ------- 2 1.0 2.0 94 94
- 0.083556 1 2 cbr 1000 ------- 2 1.0 2.0 94 94
r 0.083689 1 2 cbr 1000 ------- 2 1.0 2.0 82 82
+ 0.084444 1 2 cbr 1000 ------- 2 1.0 2.0 95 95
- 0.084444 1 2 cbr 1000 ------- 2 1.0 2.0 95 95
r 0.084578 1 2 cbr 1000 ------- 2 1.0 2.0 83 83
+ 0.085333 1 2 cbr 1000 ------- 2 1.0 2.0 96 96
- 0.085333 1 2 cbr 1000 ------- 2 1.0 2.0 96 96
r 0.085467 1 2 cbr 1000 ------- 2 1.0 2.0 84 84
+ 0.086222 1 2 cbr 1000 ------- 2 1.0 2.0 97 97
- 0.086222 1 2 cbr 1000 ------- 2 1.0 2.0 97 97
r 0.086356 1 2 cbr 1000 ------- 2 1.0 2.0 85 85
+ 0.087111 1 2 cbr 1000 ------- 2 1.0 2.0 98 98
- 0.087111 1 2 cbr 1000 ------- 2 1.0 2.0 98 98
r 0.087244 1 2 cbr 1000 ------- 2 1.0 2.0 86 86
+ 0.088 1 2 cbr 1000 ------- 2 1.0 2.0 99 99
- 0.088 1 2 cbr 1000 ------- 2 1.0 2.0 99 99
r 0.088133 1 2 cbr 1000 ------- 2 1.0 2.0 87 87
+ 0.088889 1 2 cbr 1000 ------- 2 1.0 2.0 100 100
- 0.088889 1 2 cbr 1000 ------- 2 1.0 2.0 100 100
r 0.089022 1 2 cbr 1000 ------- 2 1.0 2.0 88 88
+ 0.089778 1 2 cbr 1000 ------- 2 1.0 2.0 101 101
- 0.089778 1 2 cbr 1000 ------- 2 1.0 2.0 101 101
r 0.089911 1 2 cbr 1000 ------- 2 1.0 2.0 89 89
+ 0.090667 1 2 cbr 1000 ------- 2 1.0 2.0 102 102
- 0.090667 1 2 cbr 1000 ------- 2 1.0 2.0 102 102
r 0.0908 1 2 cbr 1000 ------- 2 1.0 2.0 90 90
+ 0.091556 1 2 cbr 1000 ------- 2 1.0 2.0 103 103
- 0.091556 1 2 cbr 1000 ------- 2 1.0 2.0 103 103
r 0.091689 1 2 cbr 1000 ------- 2 1.0 2.0 91 91
+ 0.092444 1 2 cbr 1000 ------- 2 1.0 2.0 104 104
- 0.092444 1 2 cbr 1000 ------- 2 1.0 2.0 104 104
r 0.092578 1 2 cbr 1000 ------- 2 1.0 2.0 92 92
+ 0.093333 1 2 cbr 1000 ------- 2 1.0 2.0 105 105
- 0.093333 1 2 cbr 1000 ------- 2 1.0 2.0 105 105
r 0.093467 1 2 cbr 1000 ------- 2 1.0 2.0 93 93
+ 0.094222 1 2 cbr 1000 ------- 2 1.0 2.0 106 106
- 0.094222 1 2 cbr 1000 ------- 2 1.0 2.0 106 106
r 0.094356 1 2 cbr 1000 ------- 2 1.0 2.0 94 94
+ 0.095111 1 2 cbr 1000 ------- 2 1.0 2.0 107 107
- 0.095111 1 2 cbr 1000 ------- 2 1.0 2.0 107 107
r 0.095244 1 2 cbr 1000 ------- 2 1.0 2.0 95 95
+ 0.096 1 2 cbr 1000 ------- 2 1.0 2.0 108 108
- 0.096 1 2 cbr 1000 ------- 2 1.0 2.0 108 108
r 0.096133 1 2 cbr 1000 ------- 2 1.0 2.0 96 96
+ 0.096889 1 2 cbr 1000 ------- 2 1.0 2.0 109 109
- 0.096889 1 2 cbr 1000 ------- 2 1.0 2.0 109 109
r 0.097022 1 2 cbr 1000 ------- 2 1.0 2.0 97 97
+ 0.097778 1 2 cbr 1000 ------- 2 1.0 2.0 110 110
- 0.097778 1 2 cbr 1000 ------- 2 1.0 2.0 110 110
r 0.097911 1 2 cbr 1000 ------- 2 1.0 2.0 98 98
+ 0.098667 1 2 cbr 1000 ------- 2 1.0 2.0 111 111
- 0.098667 1 2 cbr 1000 ------- 2 1.0 2.0 111 111
r 0.0988 1 2 cbr 1000 ------- 2 1.0 2.0 99 99
+ 0.099556 1 2 cbr 1000 ------- 2 1.0 2.0 112 112
- 0.099556 1 2 cbr 1000 ------- 2 1.0 2.0 112 112
r 0.099689 1 2 cbr 1000 ------- 2 1.0 2.0 100 100
+ 0.100444 1 2 cbr 1000 ------- 2 1.0 2.0 113 113
- 0.100444 1 2 cbr 1000 ------- 2 1.0 2.0 113 113
r 0.100578 1 2 cbr 1000 ------- 2 1.0 2.0 101 101
+ 0.101333 1 2 cbr 1000 ------- 2 1.0 2.0 114 114
- 0.101333 1 2 cbr 1000 ------- 2 1.0 2.0 114 114
r 0.101467 1 2 cbr 1000 ------- 2 1.0 2.0 102 102
+ 0.102222 1 2 cbr 1000 ------- 2 1.0 2.0 115 115
- 0.102222 1 2 cbr 1000 ------- 2 1.0 2.0 115 115
r 0.102356 1 2 cbr 1000 ------- 2 1.0 2.0 103 103
+ 0.103111 1 2 cbr 1000 ------- 2 1.0 2.0 116 116
- 0.103111 1 2 cbr 1000 ------- 2 1.0 2.0 116 116
r 0.103244 1 2 cbr 1000 ------- 2 1.0 2.0 104 104
+ 0.104 1 2 cbr 1000 ------- 2 1.0 2.0 117 117
- 0.104 1 2 cbr 1000 ------- 2 1.0 2.0 117 117
r 0.104133 1 2 cbr 1000 ------- 2 1.0 2.0 105 105
+ 0.104889 1 2 cbr 1000 ------- 2 1.0 2.0 118 118
- 0.104889 1 2 cbr 1000 ------- 2 1.0 2.0 118 118
r 0.105022 1 2 cbr 1000 ------- 2 1.0 2.0 106 106
+ 0.105778 1 2 cbr 1000 ------- 2 1.0 2.0 119 119
- 0.105778 1 2 cbr 1000 ------- 2 1.0 2.0 119 119
r 0.105911 1 2 cbr 1000 ------- 2 1.0 2.0 107 107
+ 0.106667 1 2 cbr 1000 ------- 2 1.0 2.0 120 120
- 0.106667 1 2 cbr 1000 ------- 2 1.0 2.0 120 120
r 0.1068 1 2 cbr 1000 ------- 2 1.0 2.0 108 108
+ 0.107556 1 2 cbr 1000 ------- 2 1.0 2.0 121 121
- 0.107556 1 2 cbr 1000 ------- 2 1.0 2.0 121 121
r 0.107689 1 2 cbr 1000 ------- 2 1.0 2.0 109 109
+ 0.108444 1 2 cbr 1000 ------- 2 1.0 2.0 122 122
- 0.108444 1 2 cbr 1000 ------- 2 1.0 2.0 122 122
r 0.108578 1 2 cbr 1000 ------- 2 1.0 2.0 110 110
+ 0.109333 1 2 cbr 1000 ------- 2 1.0 2.0 123 123
- 0.109333 1 2 cbr 1000 ------- 2 1.0 2.0 123 123
r 0.109467 1 2 cbr 1000 ------- 2 1.0 2.0 111 111
+ 0.110222 1 2 cbr 1000 ------- 2 1.0 2.0 124 124
- 0.110222 1 2 cbr 1000 ------- 2 1.0 2.0 124 124
r 0.110356 1 2 cbr 1000 ------- 2 1.0 2.0 112 112
+ 0.111111 1 2 cbr 1000 ------- 2 1.0 2.0 125 125
- 0.111111 1 2 cbr 1000 ------- 2 1.0 2.0 125 125
r 0.111244 1 2 cbr 1000 ------- 2 1.0 2.0 113 113
+ 0.112 1 2 cbr 1000 ------- 2 1.0 2.0 126 126
- 0.112 1 2 cbr 1000 ------- 2 1.0 2.0 126 126
r 0.112133 1 2 cbr 1000 ------- 2 1.0 2.0 114 114
+ 0.112889 1 2 cbr 1000 ------- 2 1.0 2.0 127 127
- 0.112889 1 2 cbr 1000 ------- 2 1.0 2.0 127 127
r 0.113022 1 2 cbr 1000 ------- 2 1.0 2.0 115 115
+ 0.113778 1 2 cbr 1000 ------- 2 1.0 2.0 128 128
- 0.113778 1 2 cbr 1000 ------- 2 1.0 2.0 128 128
r 0.113911 1 2 cbr 1000 ------- 2 1.0 2.0 116 116
+ 0.114667 1 2 cbr 1000 ------- 2 1.0 2.0 129 129
- 0.114667 1 2 cbr 1000 ------- 2 1.0 2.0 129 129
r 0.1148 1 2 cbr 1000 ------- 2 1.0 2.0 117 117
+ 0.115556 1 2 cbr 1000 ------- 2 1.0 2.0 130 130
- 0.115556 1 2 cbr 1000 ------- 2 1.0 2.0 130 130
r 0.115689 1 2 cbr 1000 ------- 2 1.0 2.0 118 118
+ 0.116444 1 2 cbr 1000 ------- 2 1.0 2.0 131 131
- 0.116444 1 2 cbr 1000 ------- 2 1.0 2.0 131 131
r 0.116578 1 2 cbr 1000 ------- 2 1.0 2.0 119 119
+ 0.117333 1 2 cbr 1000 ------- 2 1.0 2.0 132 132
- 0.117333 1 2 cbr 1000 ------- 2 1.0 2.0 132 132
r 0.117467 1 2 cbr 1000 ------- 2 1.0 2.0 120 120
+ 0.118222 1 2 cbr 1000 ------- 2 1.0 2.0 133 133
- 0.118222 1 2 cbr 1000 ------- 2 1.0 2.0 133 133
r 0.118356 1 2 cbr 1000 ------- 2 1.0 2.0 121 121
+ 0.119111 1 2 cbr 1000 ------- 2 1.0 2.0 134 134
- 0.119111 1 2 cbr 1000 ------- 2 1.0 2.0 134 134
r 0.119244 1 2 cbr 1000 ------- 2 1.0 2.0 122 122
+ 0.12 1 2 cbr 1000 ------- 2 1.0 2.0 135 135
- 0.12 1 2 cbr 1000 ------- 2 1.0 2.0 135 135
r 0.120133 1 2 cbr 1000 ------- 2 1.0 2.0 123 123
+ 0.120889 1 2 cbr 1000 ------- 2 1.0 2.0 136 136
- 0.120889 1 2 cbr 1000 ------- 2 1.0 2.0 136 136
r 0.121022 1 2 cbr 1000 ------- 2 1.0 2.0 124 124
+ 0.121778 1 2 cbr 1000 ------- 2 1.0 2.0 137 137
- 0.121778 1 2 cbr 1000 ------- 2 1.0 2.0 137 137
r 0.121911 1 2 cbr 1000 ------- 2 1.0 2.0 125 125
+ 0.122667 1 2 cbr 1000 ------- 2 1.0 2.0 138 138
- 0.122667 1 2 cbr 1000 ------- 2 1.0 2.0 138 138
r 0.1228 1 2 cbr 1000 ------- 2 1.0 2.0 126 126
+ 0.123556 1 2 cbr 1000 ------- 2 1.0 2.0 139 139
- 0.123556 1 2 cbr 1000 ------- 2 1.0 2.0 139 139
r 0.123689 1 2 cbr 1000 ------- 2 1.0 2.0 127 127
+ 0.124444 1 2 cbr 1000 ------- 2 1.0 2.0 140 140
- 0.124444 1 2 cbr 1000 ------- 2 1.0 2.0 140 140
r 0.124578 1 2 cbr 1000 ------- 2 1.0 2.0 128 128
+ 0.125333 1 2 cbr 1000 ------- 2 1.0 2.0 141 141
- 0.125333 1 2 cbr 1000 ------- 2 1.0 2.0 141 141
r 0.125467 1 2 cbr 1000 ------- 2 1.0 2.0 129 129
+ 0.126222 1 2 cbr 1000 ------- 2 1.0 2.0 142 142
- 0.126222 1 2 cbr 1000 ------- 2 1.0 2.0 142 142
r 0.126356 1 2 cbr 1000 ------- 2 1.0 2.0 130 130
+ 0.127111 1 2 cbr 1000 ------- 2 1.0 2.0 143 143
- 0.127111 1 2 cbr 1000 ------- 2 1.0 2.0 143 143
r 0.127244 1 2 cbr 1000 ------- 2 1.0 2.0 131 131
+ 0.128 1 2 cbr 1000 ------- 2 1.0 2.0 144 144
- 0.128 1 2 cbr 1000 ------- 2 1.0 2.0 144 144
r 0.128133 1 2 cbr 1000 ------- 2 1.0 2.0 132 132
+ 0.128889 1 2 cbr 1000 ------- 2 1.0 2.0 145 145
- 0.128889 1 2 cbr 1000 ------- 2 1.0 2.0 145 145
r 0.129022 1 2 cbr 1000 ------- 2 1.0 2.0 133 133
+ 0.129778 1 2 cbr 1000 ------- 2 1.0 2.0 146 146
- 0.129778 1 2 cbr 1000 ------- 2 1.0 2.0 146 146
r 0.129911 1 2 cbr 1000 ------- 2 1.0 2.0 134 134
+ 0.130667 1 2 cbr 1000 ------- 2 1.0 2.0 147 147
- 0.130667 1 2 cbr 1000 ------- 2 1.0 2.0 147 147
r 0.1308 1 2 cbr 1000 ------- 2 1.0 2.0 135 135
+ 0.131556 1 2 cbr 1000 ------- 2 1.0 2.0 148 148
- 0.131556 1 2 cbr 1000 ------- 2 1.0 2.0 148 148
r 0.131689 1 2 cbr 1000 ------- 2 1.0 2.0 136 136
+ 0.132444 1 2 cbr 1000 ------- 2 1.0 2.0 149 149
- 0.132444 1 2 cbr 1000 ------- 2 1.0 2.0 149 149
r 0.132578 1 2 cbr 1000 ------- 2 1.0 2.0 137 137
+ 0.133333 1 2 cbr 1000 ------- 2 1.0 2.0 150 150
- 0.133333 1 2 cbr 1000 ------- 2 1.0 2.0 150 150
r 0.133467 1 2 cbr 1000 ------- 2 1.0 2.0 138 138
+ 0.134222 1 2 cbr 1000 ------- 2 1.0 2.0 151 151
- 0.134222 1 2 cbr 1000 ------- 2 1.0 2.0 151 151
r 0.134356 1 2 cbr 1000 ------- 2 1.0 2.0 139 139
+ 0.135111 1 2 cbr 1000 ------- 2 1.0 2.0 152 152
- 0.135111 1 2 cbr 1000 ------- 2 1.0 2.0 152 152
r 0.135244 1 2 cbr 1000 ------- 2 1.0 2.0 140 140
+ 0.136 1 2 cbr 1000 ------- 2 1.0 2.0 153 153
- 0.136 1 2 cbr 1000 ------- 2 1.0 2.0 153 153
r 0.136133 1 2 cbr 1000 ------- 2 1.0 2.0 141 141
+ 0.136889 1 2 cbr 1000 ------- 2 1.0 2.0 154 154
- 0.136889 1 2 cbr 1000 ------- 2 1.0 2.0 154 154
r 0.137022 1 2 cbr 1000 ------- 2 1.0 2.0 142 142
+ 0.137778 1 2 cbr 1000 ------- 2 1.0 2.0 155 155
- 0.137778 1 2 cbr 1000 ------- 2 1.0 2.0 155 155
r 0.137911 1 2 cbr 1000 ------- 2 1.0 2.0 143 143
+ 0.138667 1 2 cbr 1000 ------- 2 1.0 2.0 156 156
- 0.138667 1 2 cbr 1000 ------- 2 1.0 2.0 156 156
r 0.1388 1 2 cbr 1000 ------- 2 1.0 2.0 144 144
+ 0.139556 1 2 cbr 1000 ------- 2 1.0 2.0 157 157
- 0.139556 1 2 cbr 1000 ------- 2 1.0 2.0 157 157
r 0.139689 1 2 cbr 1000 ------- 2 1.0 2.0 145 145
+ 0.140444 1 2 cbr 1000 ------- 2 1.0 2.0 158 158
- 0.140444 1 2 cbr 1000 ------- 2 1.0 2.0 158 158
r 0.140578 1 2 cbr 1000 ------- 2 1.0 2.0 146 146
+ 0.141333 1 2 cbr 1000 ------- 2 1.0 2.0 159 159
- 0.141333 1 2 cbr 1000 ------- 2 1.0 2.0 159 159
r 0.141467 1 2 cbr 1000 ------- 2 1.0 2.0 147 147
+ 0.142222 1 2 cbr 1000 ------- 2 1.0 2.0 160 160
- 0.142222 1 2 cbr 1000 ------- 2 1.0 2.0 160 160
r 0.142356 1 2 cbr 1000 ------- 2 1.0 2.0 148 148
+ 0.143111 1 2 cbr 1000 ------- 2 1.0 2.0 161 161
- 0.143111 1 2 cbr 1000 ------- 2 1.0 2.0 161 161
r 0.143244 1 2 cbr 1000 ------- 2 1.0 2.0 149 149
+ 0.144 1 2 cbr 1000 ------- 2 1.0 2.0 162 162
- 0.144 1 2 cbr 1000 ------- 2 1.0 2.0 162 162
r 0.144133 1 2 cbr 1000 ------- 2 1.0 2.0 150 150
+ 0.144889 1 2 cbr 1000 ------- 2 1.0 2.0 163 163
- 0.144889 1 2 cbr 1000 ------- 2 1.0 2.0 163 163
r 0.145022 1 2 cbr 1000 ------- 2 1.0 2.0 151 151
+ 0.145778 1 2 cbr 1000 ------- 2 1.0 2.0 164 164
- 0.145778 1 2 cbr 1000 ------- 2 1.0 2.0 164 164
r 0.145911 1 2 cbr 1000 ------- 2 1.0 2.0 152 152
+ 0.146667 1 2 cbr 1000 ------- 2 1.0 2.0 165 165
- 0.146667 1 2 cbr 1000 ------- 2 1.0 2.0 165 165
r 0.1468 1 2 cbr 1000 ------- 2 1.0 2.0 153 153
+ 0.147556 1 2 cbr 1000 ------- 2 1.0 2.0 166 166
- 0.147556 1 2 cbr 1000 ------- 2 1.0 2.0 166 166
r 0.147689 1 2 cbr 1000 ------- 2 1.0 2.0 154 154
+ 0.148444 1 2 cbr 1000 ------- 2 1.0 2.0 167 167
- 0.148444 1 2 cbr 1000 ------- 2 1.0 2.0 167 167
r 0.148578 1 2 cbr 1000 ------- 2 1.0 2.0 155 155
+ 0.149333 1 2 cbr 1000 ------- 2 1.0 2.0 168 168
- 0.149333 1 2 cbr 1000 ------- 2 1.0 2.0 168 168
r 0.149467 1 2 cbr 1000 ------- 2 1.0 2.0 156 156
+ 0.150222 1 2 cbr 1000 ------- 2 1.0 2.0 169 169
- 0.150222 1 2 cbr 1000 ------- 2 1.0 2.0 169 169
r 0.150356 1 2 cbr 1000 ------- 2 1.0 2.0 157 157
+ 0.151111 1 2 cbr 1000 ------- 2 1.0 2.0 170 170
- 0.151111 1 2 cbr 1000 ------- 2 1.0 2.0 170 170
r 0.151244 1 2 cbr 1000 ------- 2 1.0 2.0 158 158
+ 0.152 1 2 cbr 1000 ------- 2 1.0 2.0 171 171
- 0.152 1 2 cbr 1000 ------- 2 1.0 2.0 171 171
r 0.152133 1 2 cbr 1000 ------- 2 1.0 2.0 159 159
+ 0.152889 1 2 cbr 1000 ------- 2 1.0 2.0 172 172
- 0.152889 1 2 cbr 1000 ------- 2 1.0 2.0 172 172
r 0.153022 1 2 cbr 1000 ------- 2 1.0 2.0 160 160
+ 0.153778 1 2 cbr 1000 ------- 2 1.0 2.0 173 173
- 0.153778 1 2 cbr 1000 ------- 2 1.0 2.0 173 173
r 0.153911 1 2 cbr 1000 ------- 2 1.0 2.0 161 161
+ 0.154667 1 2 cbr 1000 ------- 2 1.0 2.0 174 174
- 0.154667 1 2 cbr 1000 ------- 2 1.0 2.0 174 174
r 0.1548 1 2 cbr 1000 ------- 2 1.0 2.0 162 162
+ 0.155556 1 2 cbr 1000 ------- 2 1.0 2.0 175 175
- 0.155556 1 2 cbr 1000 ------- 2 1.0 2.0 175 175
r 0.155689 1 2 cbr 1000 ------- 2 1.0 2.0 163 163
+ 0.156444 1 2 cbr 1000 ------- 2 1.0 2.0 176 176
- 0.156444 1 2 cbr 1000 ------- 2 1.0 2.0 176 176
r 0.156578 1 2 cbr 1000 ------- 2 1.0 2.0 164 164
+ 0.157333 1 2 cbr 1000 ------- 2 1.0 2.0 177 177
- 0.157333 1 2 cbr 1000 ------- 2 1.0 2.0 177 177
r 0.157467 1 2 cbr 1000 ------- 2 1.0 2.0 165 165
+ 0.158222 1 2 cbr 1000 ------- 2 1.0 2.0 178 178
- 0.158222 1 2 cbr 1000 ------- 2 1.0 2.0 178 178
r 0.158356 1 2 cbr 1000 ------- 2 1.0 2.0 166 166
+ 0.159111 1 2 cbr 1000 ------- 2 1.0 2.0 179 179
- 0.159111 1 2 cbr 1000 ------- 2 1.0 2.0 179 179
r 0.159244 1 2 cbr 1000 ------- 2 1.0 2.0 167 167
+ 0.16 1 2 cbr 1000 ------- 2 1.0 2.0 180 180
- 0.16 1 2 cbr 1000 ------- 2 1.0 2.0 180 180
r 0.160133 1 2 cbr 1000 ------- 2 1.0 2.0 168 168
+ 0.160889 1 2 cbr 1000 ------- 2 1.0 2.0 181 181
- 0.160889 1 2 cbr 1000 ------- 2 1.0 2.0 181 181
r 0.161022 1 2 cbr 1000 ------- 2 1.0 2.0 169 169
+ 0.161778 1 2 cbr 1000 ------- 2 1.0 2.0 182 182
- 0.161778 1 2 cbr 1000 ------- 2 1.0 2.0 182 182
r 0.161911 1 2 cbr 1000 ------- 2 1.0 2.0 170 170
+ 0.162667 1 2 cbr 1000 ------- 2 1.0 2.0 183 183
- 0.162667 1 2 cbr 1000 ------- 2 1.0 2.0 183 183
r 0.1628 1 2 cbr 1000 ------- 2 1.0 2.0 171 171
+ 0.163556 1 2 cbr 1000 ------- 2 1.0 2.0 184 184
- 0.163556 1 2 cbr 1000 ------- 2 1.0 2.0 184 184
r 0.163689 1 2 cbr 1000 ------- 2 1.0 2.0 172 172
+ 0.164444 1 2 cbr 1000 ------- 2 1.0 2.0 185 185
- 0.164444 1 2 cbr 1000 ------- 2 1.0 2.0 185 185
r 0.164578 1 2 cbr 1000 ------- 2 1.0 2.0 173 173
+ 0.165333 1 2 cbr 1000 ------- 2 1.0 2.0 186 186
- 0.165333 1 2 cbr 1000 ------- 2 1.0 2.0 186 186
r 0.165467 1 2 cbr 1000 ------- 2 1.0 2.0 174 174
+ 0.166222 1 2 cbr 1000 ------- 2 1.0 2.0 187 187
- 0.166222 1 2 cbr 1000 ------- 2 1.0 2.0 187 187
r 0.166356 1 2 cbr 1000 ------- 2 1.0 2.0 175 175
+ 0.167111 1 2 cbr 1000 ------- 2 1.0 2.0 188 188
- 0.167111 1 2 cbr 1000 ------- 2 1.0 2.0 188 188
r 0.167244 1 2 cbr 1000 ------- 2 1.0 2.0 176 176
+ 0.168 1 2 cbr 1000 ------- 2 1.0 2.0 189 189
- 0.168 1 2 cbr 1000 ------- 2 1.0 2.0 189 189
r 0.168133 1 2 cbr 1000 ------- 2 1.0 2.0 177 177
+ 0.168889 1 2 cbr 1000 ------- 2 1.0 2.0 190 190
- 0.168889 1 2 cbr 1000 ------- 2 1.0 2.0 190 190
r 0.169022 1 2 cbr 1000 ------- 2 1.0 2.0 178 178
+ 0.169778 1 2 cbr 1000 ------- 2 1.0 2.0 191 191
- 0.169778 1 2 cbr 1000 ------- 2 1.0 2.0 191 191
r 0.169911 1 2 cbr 1000 ------- 2 1.0 2.0 179 179
+ 0.170667 1 2 cbr 1000 ------- 2 1.0 2.0 192 192
- 0.170667 1 2 cbr 1000 ------- 2 1.0 2.0 192 192
r 0.1708 1 2 cbr 1000 ------- 2 1.0 2.0 180 180
+ 0.171556 1 2 cbr 1000 ------- 2 1.0 2.0 193 193
- 0.171556 1 2 cbr 1000 ------- 2 1.0 2.0 193 193
r 0.171689 1 2 cbr 1000 ------- 2 1.0 2.0 181 181
+ 0.172444 1 2 cbr 1000 ------- 2 1.0 2.0 194 194
- 0.172444 1 2 cbr 1000 ------- 2 1.0 2.0 194 194
r 0.172578 1 2 cbr 1000 ------- 2 1.0 2.0 182 182
+ 0.173333 1 2 cbr 1000 ------- 2 1.0 2.0 195 195
- 0.173333 1 2 cbr 1000 ------- 2 1.0 2.0 195 195
r 0.173467 1 2 cbr 1000 ------- 2 1.0 2.0 183 183
+ 0.174222 1 2 cbr 1000 ------- 2 1.0 2.0 196 196
- 0.174222 1 2 cbr 1000 ------- 2 1.0 2.0 196 196
r 0.174356 1 2 cbr 1000 ------- 2 1.0 2.0 184 184
+ 0.175111 1 2 cbr 1000 ------- 2 1.0 2.0 197 197
- 0.175111 1 2 cbr 1000 ------- 2 1.0 2.0 197 197
r 0.175244 1 2 cbr 1000 ------- 2 1.0 2.0 185 185
+ 0.176 1 2 cbr 1000 ------- 2 1.0 2.0 198 198
- 0.176 1 2 cbr 1000 ------- 2 1.0 2.0 198 198
r 0.176133 1 2 cbr 1000 ------- 2 1.0 2.0 186 186
+ 0.176889 1 2 cbr 1000 ------- 2 1.0 2.0 199 199
- 0.176889 1 2 cbr 1000 ------- 2 1.0 2.0 199 199
r 0.177022 1 2 cbr 1000 ------- 2 1.0 2.0 187 187
+ 0.177778 1 2 cbr 1000 ------- 2 1.0 2.0 200 200
- 0.177778 1 2 cbr 1000 ------- 2 1.0 2.0 200 200
r 0.177911 1 2 cbr 1000 ------- 2 1.0 2.0 188 188
+ 0.178667 1 2 cbr 1000 ------- 2 1.0 2.0 201 201
- 0.178667 1 2 cbr 1000 ------- 2 1.0 2.0 201 201
r 0.1788 1 2 cbr 1000 ------- 2 1.0 2.0 189 189
+ 0.179556 1 2 cbr 1000 ------- 2 1.0 2.0 202 202
- 0.179556 1 2 cbr 1000 ------- 2 1.0 2.0 202 202
r 0.179689 1 2 cbr 1000 ------- 2 1.0 2.0 190 190
+ 0.180444 1 2 cbr 1000 ------- 2 1.0 2.0 203 203
- 0.180444 1 2 cbr 1000 ------- 2 1.0 2.0 203 203
r 0.180578 1 2 cbr 1000 ------- 2 1.0 2.0 191 191
+ 0.181333 1 2 cbr 1000 ------- 2 1.0 2.0 204 204
- 0.181333 1 2 cbr 1000 ------- 2 1.0 2.0 204 204
r 0.181467 1 2 cbr 1000 ------- 2 1.0 2.0 192 192
+ 0.182222 1 2 cbr 1000 ------- 2 1.0 2.0 205 205
- 0.182222 1 2 cbr 1000 ------- 2 1.0 2.0 205 205
r 0.182356 1 2 cbr 1000 ------- 2 1.0 2.0 193 193
+ 0.183111 1 2 cbr 1000 ------- 2 1.0 2.0 206 206
- 0.183111 1 2 cbr 1000 ------- 2 1.0 2.0 206 206
r 0.183244 1 2 cbr 1000 ------- 2 1.0 2.0 194 194
+ 0.184 1 2 cbr 1000 ------- 2 1.0 2.0 207 207
- 0.184 1 2 cbr 1000 ------- 2 1.0 2.0 207 207
r 0.184133 1 2 cbr 1000 ------- 2 1.0 2.0 195 195
+ 0.184889 1 2 cbr 1000 ------- 2 1.0 2.0 208 208
- 0.184889 1 2 cbr 1000 ------- 2 1.0 2.0 208 208
r 0.185022 1 2 cbr 1000 ------- 2 1.0 2.0 196 196
+ 0.185778 1 2 cbr 1000 ------- 2 1.0 2.0 209 209
- 0.185778 1 2 cbr 1000 ------- 2 1.0 2.0 209 209