+ 0 1 2 cbr 1000 ------- 3 1.0 2.0 0 0
- 0 1 2 cbr 1000 ------- 3 1.0 2.0 0 0
+ 0.001 1 2 cbr 1000 ------- 3 1.0 2.0 1 1
- 0.001 1 2 cbr 1000 ------- 3 1.0 2.0 1 1
+ 0.002 1 2 cbr 1000 ------- 3 1.0 2.0 2 2
- 0.002 1 2 cbr 1000 ------- 3 1.0 2.0 2 2
+ 0.003 1 2 cbr 1000 ------- 3 1.0 2.0 3 3
- 0.003 1 2 cbr 1000 ------- 3 1.0 2.0 3 3
+ 0.004 1 2 cbr 1000 ------- 3 1.0 2.0 4 4
- 0.004 1 2 cbr 1000 ------- 3 1.0 2.0 4 4
+ 0.005 1 2 cbr 1000 ------- 3 1.0 2.0 5 5
- 0.005 1 2 cbr 1000 ------- 3 1.0 2.0 5 5
+ 0.006 1 2 cbr 1000 ------- 3 1.0 2.0 6 6
- 0.006 1 2 cbr 1000 ------- 3 1.0 2.0 6 6
+ 0.007 1 2 cbr 1000 ------- 3 1.0 2.0 7 7
- 0.007 1 2 cbr 1000 ------- 3 1.0 2.0 7 7
+ 0.008 1 2 cbr 1000 ------- 3 1.0 2.0 8 8
- 0.008 1 2 cbr 1000 ------- 3 1.0 2.0 8 8
+ 0.009 1 2 cbr 1000 ------- 3 1.0 2.0 9 9
- 0.009 1 2 cbr 1000 ------- 3 1.0 2.0 9 9
+ 0.01 1 2 cbr 1000 ------- 3 1.0 2.0 10 10
- 0.01 1 2 cbr 1000 ------- 3 1.0 2.0 10 10
r 0.0108 1 2 cbr 1000 ------- 3 1.0 2.0 0 0
+ 0.011 1 2 cbr 1000 ------- 3 1.0 2.0 11 11
- 0.011 1 2 cbr 1000 ------- 3 1.0 2.0 11 11
r 0.0118 1 2 cbr 1000 ------- 3 1.0 2.0 1 1
+ 0.012 1 2 cbr 1000 ------- 3 1.0 2.0 12 12
- 0.012 1 2 cbr 1000 ------- 3 1.0 2.0 12 12
r 0.0128 1 2 cbr 1000 ------- 3 1.0 2.0 2 2
+ 0.013 1 2 cbr 1000 ------- 3 1.0 2.0 13 13
- 0.013 1 2 cbr 1000 ------- 3 1.0 2.0 13 13
r 0.0138 1 2 cbr 1000 ------- 3 1.0 2.0 3 3
+ 0.014 1 2 cbr 1000 ------- 3 1.0 2.0 14 14
- 0.014 1 2 cbr 1000 ------- 3 1.0 2.0 14 14
r 0.0148 1 2 cbr 1000 ------- 3 1.0 2.0 4 4
+ 0.015 1 2 cbr 1000 ------- 3 1.0 2.0 15 15
- 0.015 1 2 cbr 1000 ------- 3 1.0 2.0 15 15
r 0.0158 1 2 cbr 1000 ------- 3 1.0 2.0 5 5
+ 0.016 1 2 cbr 1000 ------- 3 1.0 2.0 16 16
- 0.016 1 2 cbr 1000 ------- 3 1.0 2.0 16 16
r 0.0168 1 2 cbr 1000 ------- 3 1.0 2.0 6 6
+ 0.017 1 2 cbr 1000 ------- 3 1.0 2.0 17 17
- 0.017 1 2 cbr 1000 ------- 3 1.0 2.0 17 17
r 0.0178 1 2 cbr 1000 ------- 3 1.0 2.0 7 7
+ 0.018 1 2 cbr 1000 ------- 3 1.0 2.0 18 18
- 0.018 1 2 cbr 1000 ------- 3 1.0 2.0 18 18
r 0.0188 1 2 cbr 1000 ------- 3 1.0 2.0 8 8
+ 0.019 1 2 cbr 1000 ------- 3 1.0 2.0 19 19
- 0.019 1 2 cbr 1000 ------- 3 1.0 2.0 19 19
r 0.0198 1 2 cbr 1000 ------- 3 1.0 2.0 9 9
+ 0.02 1 2 cbr 1000 ------- 3 1.0 2.0 20 20
- 0.02 1 2 cbr 1000 ------- 3 1.0 2.0 20 20
r 0.0208 1 2 cbr 1000 ------- 3 1.0 2.0 10 10
+ 0.021 1 2 cbr 1000 ------- 3 1.0 2.0 21 21
- 0.021 1 2 cbr 1000 ------- 3 1.0 2.0 21 21
r 0.0218 1 2 cbr 1000 ------- 3 1.0 2.0 11 11
+ 0.022 1 2 cbr 1000 ------- 3 1.0 2.0 22 22
- 0.022 1 2 cbr 1000 ------- 3 1.0 2.0 22 22
r 0.0228 1 2 cbr 1000 ------- 3 1.0 2.0 12 12
+ 0.023 1 2 cbr 1000 ------- 3 1.0 2.0 23 23
- 0.023 1 2 cbr 1000 ------- 3 1.0 2.0 23 23
r 0.0238 1 2 cbr 1000 ------- 3 1.0 2.0 13 13
+ 0.024 1 2 cbr 1000 ------- 3 1.0 2.0 24 24
- 0.024 1 2 cbr 1000 ------- 3 1.0 2.0 24 24
r 0.0248 1 2 cbr 1000 ------- 3 1.0 2.0 14 14
+ 0.025 1 2 cbr 1000 ------- 3 1.0 2.0 25 25
- 0.025 1 2 cbr 1000 ------- 3 1.0 2.0 25 25
r 0.0258 1 2 cbr 1000 ------- 3 1.0 2.0 15 15
+ 0.026 1 2 cbr 1000 ------- 3 1.0 2.0 26 26
- 0.026 1 2 cbr 1000 ------- 3 1.0 2.0 26 26
r 0.0268 1 2 cbr 1000 ------- 3 1.0 2.0 16 16
+ 0.027 1 2 cbr 1000 ------- 3 1.0 2.0 27 27
- 0.027 1 2 cbr 1000 ------- 3 1.0 2.0 27 27
r 0.0278 1 2 cbr 1000 ------- 3 1.0 2.0 17 17
+ 0.028 1 2 cbr 1000 ------- 3 1.0 2.0 28 28
- 0.028 1 2 cbr 1000 ------- 3 1.0 2.0 28 28
r 0.0288 1 2 cbr 1000 ------- 3 1.0 2.0 18 18
+ 0.029 1 2 cbr 1000 ------- 3 1.0 2.0 29 29
- 0.029 1 2 cbr 1000 ------- 3 1.0 2.0 29 29
r 0.0298 1 2 cbr 1000 ------- 3 1.0 2.0 19 19
+ 0.03 1 2 cbr 1000 ------- 3 1.0 2.0 30 30
- 0.03 1 2 cbr 1000 ------- 3 1.0 2.0 30 30
r 0.0308 1 2 cbr 1000 ------- 3 1.0 2.0 20 20
+ 0.031 1 2 cbr 1000 ------- 3 1.0 2.0 31 31
- 0.031 1 2 cbr 1000 ------- 3 1.0 2.0 31 31
r 0.0318 1 2 cbr 1000 ------- 3 1.0 2.0 21 21
+ 0.032 1 2 cbr 1000 ------- 3 1.0 2.0 32 32
- 0.032 1 2 cbr 1000 ------- 3 1.0 2.0 32 32
r 0.0328 1 2 cbr 1000 ------- 3 1.0 2.0 22 22
+ 0.033 1 2 cbr 1000 ------- 3 1.0 2.0 33 33
- 0.033 1 2 cbr 1000 ------- 3 1.0 2.0 33 33
r 0.0338 1 2 cbr 1000 ------- 3 1.0 2.0 23 23
+ 0.034 1 2 cbr 1000 ------- 3 1.0 2.0 34 34
- 0.034 1 2 cbr 1000 ------- 3 1.0 2.0 34 34
r 0.0348 1 2 cbr 1000 ------- 3 1.0 2.0 24 24
+ 0.035 1 2 cbr 1000 ------- 3 1.0 2.0 35 35
- 0.035 1 2 cbr 1000 ------- 3 1.0 2.0 35 35
r 0.0358 1 2 cbr 1000 ------- 3 1.0 2.0 25 25
+ 0.036 1 2 cbr 1000 ------- 3 1.0 2.0 36 36
- 0.036 1 2 cbr 1000 ------- 3 1.0 2.0 36 36
r 0.0368 1 2 cbr 1000 ------- 3 1.0 2.0 26 26
+ 0.037 1 2 cbr 1000 ------- 3 1.0 2.0 37 37
- 0.037 1 2 cbr 1000 ------- 3 1.0 2.0 37 37
r 0.0378 1 2 cbr 1000 ------- 3 1.0 2.0 27 27
+ 0.038 1 2 cbr 1000 ------- 3 1.0 2.0 38 38
- 0.038 1 2 cbr 1000 ------- 3 1.0 2.0 38 38
r 0.0388 1 2 cbr 1000 ------- 3 1.0 2.0 28 28
+ 0.039 1 2 cbr 1000 ------- 3 1.0 2.0 39 39
- 0.039 1 2 cbr 1000 ------- 3 1.0 2.0 39 39
r 0.0398 1 2 cbr 1000 ------- 3 1.0 2.0 29 29
+ 0.04 1 2 cbr 1000 ------- 3 1.0 2.0 40 40
- 0.04 1 2 cbr 1000 ------- 3 1.0 2.0 40 40
r 0.0408 1 2 cbr 1000 ------- 3 1.0 2.0 30 30
+ 0.041 1 2 cbr 1000 ------- 3 1.0 2.0 41 41
- 0.041 1 2 cbr 1000 ------- 3 1.0 2.0 41 41
r 0.0418 1 2 cbr 1000 ------- 3 1.0 2.0 31 31
+ 0.042 1 2 cbr 1000 ------- 3 1.0 2.0 42 42
- 0.042 1 2 cbr 1000 ------- 3 1.0 2.0 42 42
r 0.0428 1 2 cbr 1000 ------- 3 1.0 2.0 32 32
+ 0.043 1 2 cbr 1000 ------- 3 1.0 2.0 43 43
- 0.043 1 2 cbr 1000 ------- 3 1.0 2.0 43 43
r 0.0438 1 2 cbr 1000 ------- 3 1.0 2.0 33 33
+ 0.044 1 2 cbr 1000 ------- 3 1.0 2.0 44 44
- 0.044 1 2 cbr 1000 ------- 3 1.0 2.0 44 44
r 0.0448 1 2 cbr 1000 ------- 3 1.0 2.0 34 34
+ 0.045 1 2 cbr 1000 ------- 3 1.0 2.0 45 45
- 0.045 1 2 cbr 1000 ------- 3 1.0 2.0 45 45
r 0.0458 1 2 cbr 1000 ------- 3 1.0 2.0 35 35
+ 0.046 1 2 cbr 1000 ------- 3 1.0 2.0 46 46
- 0.046 1 2 cbr 1000 ------- 3 1.0 2.0 46 46
r 0.0468 1 2 cbr 1000 ------- 3 1.0 2.0 36 36
+ 0.047 1 2 cbr 1000 ------- 3 1.0 2.0 47 47
- 0.047 1 2 cbr 1000 ------- 3 1.0 2.0 47 47
r 0.0478 1 2 cbr 1000 ------- 3 1.0 2.0 37 37
+ 0.048 1 2 cbr 1000 ------- 3 1.0 2.0 48 48
- 0.048 1 2 cbr 1000 ------- 3 1.0 2.0 48 48
r 0.0488 1 2 cbr 1000 ------- 3 1.0 2.0 38 38
+ 0.049 1 2 cbr 1000 ------- 3 1.0 2.0 49 49
- 0.049 1 2 cbr 1000 ------- 3 1.0 2.0 49 49
r 0.0498 1 2 cbr 1000 ------- 3 1.0 2.0 39 39
+ 0.05 1 2 cbr 1000 ------- 3 1.0 2.0 50 50
- 0.05 1 2 cbr 1000 ------- 3 1.0 2.0 50 50
r 0.0508 1 2 cbr 1000 ------- 3 1.0 2.0 40 40
+ 0.051 1 2 cbr 1000 ------- 3 1.0 2.0 51 51
- 0.051 1 2 cbr 1000 ------- 3 1.0 2.0 51 51
r 0.0518 1 2 cbr 1000 ------- 3 1.0 2.0 41 41
+ 0.052 1 2 cbr 1000 ------- 3 1.0 2.0 52 52
- 0.052 1 2 cbr 1000 ------- 3 1.0 2.0 52 52
r 0.0528 1 2 cbr 1000 ------- 3 1.0 2.0 42 42
+ 0.053 1 2 cbr 1000 ------- 3 1.0 2.0 53 53
- 0.053 1 2 cbr 1000 ------- 3 1.0 2.0 53 53
r 0.0538 1 2 cbr 1000 ------- 3 1.0 2.0 43 43
+ 0.054 1 2 cbr 1000 ------- 3 1.0 2.0 54 54
- 0.054 1 2 cbr 1000 ------- 3 1.0 2.0 54 54
r 0.0548 1 2 cbr 1000 ------- 3 1.0 2.0 44 44
+ 0.055 1 2 cbr 1000 ------- 3 1.0 2.0 55 55
- 0.055 1 2 cbr 1000 ------- 3 1.0 2.0 55 55
r 0.0558 1 2 cbr 1000 ------- 3 1.0 2.0 45 45
+ 0.056 1 2 cbr 1000 ------- 3 1.0 2.0 56 56
- 0.056 1 2 cbr 1000 ------- 3 1.0 2.0 56 56
r 0.0568 1 2 cbr 1000 ------- 3 1.0 2.0 46 46
+ 0.057 1 2 cbr 1000 ------- 3 1.0 2.0 57 57
- 0.057 1 2 cbr 1000 ------- 3 1.0 2.0 57 57
r 0.0578 1 2 cbr 1000 ------- 3 1.0 2.0 47 47
+ 0.058 1 2 cbr 1000 ------- 3 1.0 2.0 58 58
- 0.058 1 2 cbr 1000 ------- 3 1.0 2.0 58 58
r 0.0588 1 2 cbr 1000 ------- 3 1.0 2.0 48 48
+ 0.059 1 2 cbr 1000 ------- 3 1.0 2.0 59 59
- 0.059 1 2 cbr 1000 ------- 3 1.0 2.0 59 59
r 0.0598 1 2 cbr 1000 ------- 3 1.0 2.0 49 49
+ 0.06 1 2 cbr 1000 ------- 3 1.0 2.0 60 60
- 0.06 1 2 cbr 1000 ------- 3 1.0 2.0 60 60
r 0.0608 1 2 cbr 1000 ------- 3 1.0 2.0 50 50
+ 0.061 1 2 cbr 1000 ------- 3 1.0 2.0 61 61
- 0.061 1 2 cbr 1000 ------- 3 1.0 2.0 61 61
r 0.0618 1 2 cbr 1000 ------- 3 1.0 2.0 51 51
+ 0.062 1 2 cbr 1000 ------- 3 1.0 2.0 62 62
- 0.062 1 2 cbr 1000 ------- 3 1.0 2.0 62 62
r 0.0628 1 2 cbr 1000 ------- 3 1.0 2.0 52 52
+ 0.063 1 2 cbr 1000 ------- 3 1.0 2.0 63 63
- 0.063 1 2 cbr 1000 ------- 3 1.0 2.0 63 63
r 0.0638 1 2 cbr 1000 ------- 3 1.0 2.0 53 53
+ 0.064 1 2 cbr 1000 ------- 3 1.0 2.0 64 64
- 0.064 1 2 cbr 1000 ------- 3 1.0 2.0 64 64
r 0.0648 1 2 cbr 1000 ------- 3 1.0 2.0 54 54
+ 0.065 1 2 cbr 1000 ------- 3 1.0 2.0 65 65
- 0.065 1 2 cbr 1000 ------- 3 1.0 2.0 65 65
r 0.0658 1 2 cbr 1000 ------- 3 1.0 2.0 55 55
+ 0.066 1 2 cbr 1000 ------- 3 1.0 2.0 66 66
- 0.066 1 2 cbr 1000 ------- 3 1.0 2.0 66 66
r 0.0668 1 2 cbr 1000 ------- 3 1.0 2.0 56 56
+ 0.067 1 2 cbr 1000 ------- 3 1.0 2.0 67 67
- 0.067 1 2 cbr 1000 ------- 3 1.0 2.0 67 67
r 0.0678 1 2 cbr 1000 ------- 3 1.0 2.0 57 57
+ 0.068 1 2 cbr 1000 ------- 3 1.0 2.0 68 68
- 0.068 1 2 cbr 1000 ------- 3 1.0 2.0 68 68
r 0.0688 1 2 cbr 1000 ------- 3 1.0 2.0 58 58
+ 0.069 1 2 cbr 1000 ------- 3 1.0 2.0 69 69
- 0.069 1 2 cbr 1000 ------- 3 1.0 2.0 69 69
r 0.0698 1 2 cbr 1000 ------- 3 1.0 2.0 59 59
+ 0.07 1 2 cbr 1000 ------- 3 1.0 2.0 70 70
- 0.07 1 2 cbr 1000 ------- 3 1.0 2.0 70 70
r 0.0708 1 2 cbr 1000 ------- 3 1.0 2.0 60 60
+ 0.071 1 2 cbr 1000 ------- 3 1.0 2.0 71 71
- 0.071 1 2 cbr 1000 ------- 3 1.0 2.0 71 71
r 0.0718 1 2 cbr 1000 ------- 3 1.0 2.0 61 61
+ 0.072 1 2 cbr 1000 ------- 3 1.0 2.0 72 72
- 0.072 1 2 cbr 1000 ------- 3 1.0 2.0 72 72
r 0.0728 1 2 cbr 1000 ------- 3 1.0 2.0 62 62
+ 0.073 1 2 cbr 1000 ------- 3 1.0 2.0 73 73
- 0.073 1 2 cbr 1000 ------- 3 1.0 2.0 73 73
r 0.0738 1 2 cbr 1000 ------- 3 1.0 2.0 63 63
+ 0.074 1 2 cbr 1000 ------- 3 1.0 2.0 74 74
- 0.074 1 2 cbr 1000 ------- 3 1.0 2.0 74 74
r 0.0748 1 2 cbr 1000 ------- 3 1.0 2.0 64 64
+ 0.075 1 2 cbr 1000 ------- 3 1.0 2.0 75 75
- 0.075 1 2 cbr 1000 ------- 3 1.0 2.0 75 75
r 0.0758 1 2 cbr 1000 ------- 3 1.0 2.0 65 65
+ 0.076 1 2 cbr 1000 ------- 3 1.0 2.0 76 76
- 0.076 1 2 cbr 1000 ------- 3 1.0 2.0 76 76
r 0.0768 1 2 cbr 1000 ------- 3 1.0 2.0 66 66
+ 0.077 1 2 cbr 1000 ------- 3 1.0 2.0 77 77
- 0.077 1 2 cbr 1000 ------- 3 1.0 2.0 77 77
r 0.0778 1 2 cbr 1000 ------- 3 1.0 2.0 67 67
+ 0.078 1 2 cbr 1000 ------- 3 1.0 2.0 78 78
- 0.078 1 2 cbr 1000 ------- 3 1.0 2.0 78 78
r 0.0788 1 2 cbr 1000 ------- 3 1.0 2.0 68 68
+ 0.079 1 2 cbr 1000 ------- 3 1.0 2.0 79 79
- 0.079 1 2 cbr 1000 ------- 3 1.0 2.0 79 79
r 0.0798 1 2 cbr 1000 ------- 3 1.0 2.0 69 69
+ 0.08 1 2 cbr 1000 ------- 3 1.0 2.0 80 80
- 0.08 1 2 cbr 1000 ------- 3 1.0 2.0 80 80
r 0.0808 1 2 cbr 1000 ------- 3 1.0 2.0 70 70
+ 0.081 1 2 cbr 1000 ------- 3 1.0 2.0 81 81
- 0.081 1 2 cbr 1000 ------- 3 1.0 2.0 81 81
r 0.0818 1 2 cbr 1000 ------- 3 1.0 2.0 71 71
+ 0.082 1 2 cbr 1000 ------- 3 1.0 2.0 82 82
- 0.082 1 2 cbr 1000 ------- 3 1.0 2.0 82 82
r 0.0828 1 2 cbr 1000 ------- 3 1.0 2.0 72 72
+ 0.083 1 2 cbr 1000 ------- 3 1.0 2.0 83 83
- 0.083 1 2 cbr 1000 ------- 3 1.0 2.0 83 83
r 0.0838 1 2 cbr 1000 ------- 3 1.0 2.0 73 73
+ 0.084 1 2 cbr 1000 ------- 3 1.0 2.0 84 84
- 0.084 1 2 cbr 1000 ------- 3 1.0 2.0 84 84
r 0.0848 1 2 cbr 1000 ------- 3 1.0 2.0 74 74
+ 0.085 1 2 cbr 1000 ------- 3 1.0 2.0 85 85
- 0.085 1 2 cbr 1000 ------- 3 1.0 2.0 85 85
r 0.0858 1 2 cbr 1000 ------- 3 1.0 2.0 75 75
+ 0.086 1 2 cbr 1000 ------- 3 1.0 2.0 86 86
- 0.086 1 2 cbr 1000 ------- 3 1.0 2.0 86 86
r 0.0868 1 2 cbr 1000 ------- 3 1.0 2.0 76 76
+ 0.087 1 2 cbr 1000 ------- 3 1.0 2.0 87 87
- 0.087 1 2 cbr 1000 ------- 3 1.0 2.0 87 87
r 0.0878 1 2 cbr 1000 ------- 3 1.0 2.0 77 77
+ 0.088 1 2 cbr 1000 ------- 3 1.0 2.0 88 88
- 0.088 1 2 cbr 1000 ------- 3 1.0 2.0 88 88
r 0.0888 1 2 cbr 1000 ------- 3 1.0 2.0 78 78
+ 0.089 1 2 cbr 1000 ------- 3 1.0 2.0 89 89
- 0.089 1 2 cbr 1000 ------- 3 1.0 2.0 89 89
r 0.0898 1 2 cbr 1000 ------- 3 1.0 2.0 79 79
+ 0.09 1 2 cbr 1000 ------- 3 1.0 2.0 90 90
- 0.09 1 2 cbr 1000 ------- 3 1.0 2.0 90 90
r 0.0908 1 2 cbr 1000 ------- 3 1.0 2.0 80 80
+ 0.091 1 2 cbr 1000 ------- 3 1.0 2.0 91 91
- 0.091 1 2 cbr 1000 ------- 3 1.0 2.0 91 91
r 0.0918 1 2 cbr 1000 ------- 3 1.0 2.0 81 81
+ 0.092 1 2 cbr 1000 ------- 3 1.0 2.0 92 92
- 0.092 1 2 cbr 1000 ------- 3 1.0 2.0 92 92
r 0.0928 1 2 cbr 1000 ------- 3 1.0 2.0 82 82
+ 0.093 1 2 cbr 1000 ------- 3 1.0 2.0 93 93
- 0.093 1 2 cbr 1000 ------- 3 1.0 2.0 93 93
r 0.0938 1 2 cbr 1000 ------- 3 1.0 2.0 83 83
+ 0.094 1 2 cbr 1000 ------- 3 1.0 2.0 94 94
- 0.094 1 2 cbr 1000 ------- 3 1.0 2.0 94 94
r 0.0948 1 2 cbr 1000 ------- 3 1.0 2.0 84 84
+ 0.095 1 2 cbr 1000 ------- 3 1.0 2.0 95 95
- 0.095 1 2 cbr 1000 ------- 3 1.0 2.0 95 95
r 0.0958 1 2 cbr 1000 ------- 3 1.0 2.0 85 85
+ 0.096 1 2 cbr 1000 ------- 3 1.0 2.0 96 96
- 0.096 1 2 cbr 1000 ------- 3 1.0 2.0 96 96
r 0.0968 1 2 cbr 1000 ------- 3 1.0 2.0 86 86
+ 0.097 1 2 cbr 1000 ------- 3 1.0 2.0 97 97
- 0.097 1 2 cbr 1000 ------- 3 1.0 2.0 97 97
r 0.0978 1 2 cbr 1000 ------- 3 1.0 2.0 87 87
+ 0.098 1 2 cbr 1000 ------- 3 1.0 2.0 98 98
- 0.098 1 2 cbr 1000 ------- 3 1.0 2.0 98 98
r 0.0988 1 2 cbr 1000 ------- 3 1.0 2.0 88 88
+ 0.099 1 2 cbr 1000 ------- 3 1.0 2.0 99 99
- 0.099 1 2 cbr 1000 ------- 3 1.0 2.0 99 99
r 0.0998 1 2 cbr 1000 ------- 3 1.0 2.0 89 89
+ 0.1 1 2 cbr 1000 ------- 3 1.0 2.0 100 100
- 0.1 1 2 cbr 1000 ------- 3 1.0 2.0 100 100
r 0.1008 1 2 cbr 1000 ------- 3 1.0 2.0 90 90
+ 0.101 1 2 cbr 1000 ------- 3 1.0 2.0 101 101
- 0.101 1 2 cbr 1000 ------- 3 1.0 2.0 101 101
r 0.1018 1 2 cbr 1000 ------- 3 1.0 2.0 91 91
+ 0.102 1 2 cbr 1000 ------- 3 1.0 2.0 102 102
- 0.102 1 2 cbr 1000 ------- 3 1.0 2.0 102 102
r 0.1028 1 2 cbr 1000 ------- 3 1.0 2.0 92 92
+ 0.103 1 2 cbr 1000 ------- 3 1.0 2.0 103 103
- 0.103 1 2 cbr 1000 ------- 3 1.0 2.0 103 103
r 0.1038 1 2 cbr 1000 ------- 3 1.0 2.0 93 93
+ 0.104 1 2 cbr 1000 ------- 3 1.0 2.0 104 104
- 0.104 1 2 cbr 1000 ------- 3 1.0 2.0 104 104
r 0.1048 1 2 cbr 1000 ------- 3 1.0 2.0 94 94
+ 0.105 1 2 cbr 1000 ------- 3 1.0 2.0 105 105
- 0.105 1 2 cbr 1000 ------- 3 1.0 2.0 105 105
r 0.1058 1 2 cbr 1000 ------- 3 1.0 2.0 95 95
+ 0.106 1 2 cbr 1000 ------- 3 1.0 2.0 106 106
- 0.106 1 2 cbr 1000 ------- 3 1.0 2.0 106 106
r 0.1068 1 2 cbr 1000 ------- 3 1.0 2.0 96 96
+ 0.107 1 2 cbr 1000 ------- 3 1.0 2.0 107 107
- 0.107 1 2 cbr 1000 ------- 3 1.0 2.0 107 107
r 0.1078 1 2 cbr 1000 ------- 3 1.0 2.0 97 97
+ 0.108 1 2 cbr 1000 ------- 3 1.0 2.0 108 108
- 0.108 1 2 cbr 1000 ------- 3 1.0 2.0 108 108
r 0.1088 1 2 cbr 1000 ------- 3 1.0 2.0 98 98
+ 0.109 1 2 cbr 1000 ------- 3 1.0 2.0 109 109
- 0.109 1 2 cbr 1000 ------- 3 1.0 2.0 109 109
r 0.1098 1 2 cbr 1000 ------- 3 1.0 2.0 99 99
+ 0.11 1 2 cbr 1000 ------- 3 1.0 2.0 110 110
- 0.11 1 2 cbr 1000 ------- 3 1.0 2.0 110 110
r 0.1108 1 2 cbr 1000 ------- 3 1.0 2.0 100 100
+ 0.111 1 2 cbr 1000 ------- 3 1.0 2.0 111 111
- 0.111 1 2 cbr 1000 ------- 3 1.0 2.0 111 111
r 0.1118 1 2 cbr 1000 ------- 3 1.0 2.0 101 101
+ 0.112 1 2 cbr 1000 ------- 3 1.0 2.0 112 112
- 0.112 1 2 cbr 1000 ------- 3 1.0 2.0 112 112
r 0.1128 1 2 cbr 1000 ------- 3 1.0 2.0 102 102
+ 0.113 1 2 cbr 1000 ------- 3 1.0 2.0 113 113
- 0.113 1 2 cbr 1000 ------- 3 1.0 2.0 113 113
r 0.1138 1 2 cbr 1000 ------- 3 1.0 2.0 103 103
+ 0.114 1 2 cbr 1000 ------- 3 1.0 2.0 114 114
- 0.114 1 2 cbr 1000 ------- 3 1.0 2.0 114 114
r 0.1148 1 2 cbr 1000 ------- 3 1.0 2.0 104 104
+ 0.115 1 2 cbr 1000 ------- 3 1.0 2.0 115 115
- 0.115 1 2 cbr 1000 ------- 3 1.0 2.0 115 115
r 0.1158 1 2 cbr 1000 ------- 3 1.0 2.0 105 105
+ 0.116 1 2 cbr 1000 ------- 3 1.0 2.0 116 116
- 0.116 1 2 cbr 1000 ------- 3 1.0 2.0 116 116
r 0.1168 1 2 cbr 1000 ------- 3 1.0 2.0 106 106
+ 0.117 1 2 cbr 1000 ------- 3 1.0 2.0 117 117
- 0.117 1 2 cbr 1000 ------- 3 1.0 2.0 117 117
r 0.1178 1 2 cbr 1000 ------- 3 1.0 2.0 107 107
+ 0.118 1 2 cbr 1000 ------- 3 1.0 2.0 118 118
- 0.118 1 2 cbr 1000 ------- 3 1.0 2.0 118 118
r 0.1188 1 2 cbr 1000 ------- 3 1.0 2.0 108 108
+ 0.119 1 2 cbr 1000 ------- 3 1.0 2.0 119 119
- 0.119 1 2 cbr 1000 ------- 3 1.0 2.0 119 119
r 0.1198 1 2 cbr 1000 ------- 3 1.0 2.0 109 109
+ 0.12 1 2 cbr 1000 ------- 3 1.0 2.0 120 120
- 0.12 1 2 cbr 1000 ------- 3 1.0 2.0 120 120
r 0.1208 1 2 cbr 1000 ------- 3 1.0 2.0 110 110
+ 0.121 1 2 cbr 1000 ------- 3 1.0 2.0 121 121
- 0.121 1 2 cbr 1000 ------- 3 1.0 2.0 121 121
r 0.1218 1 2 cbr 1000 ------- 3 1.0 2.0 111 111
+ 0.122 1 2 cbr 1000 ------- 3 1.0 2.0 122 122
- 0.122 1 2 cbr 1000 ------- 3 1.0 2.0 122 122
r 0.1228 1 2 cbr 1000 ------- 3 1.0 2.0 112 112
+ 0.123 1 2 cbr 1000 ------- 3 1.0 2.0 123 123
- 0.123 1 2 cbr 1000 ------- 3 1.0 2.0 123 123
r 0.1238 1 2 cbr 1000 ------- 3 1.0 2.0 113 113
+ 0.124 1 2 cbr 1000 ------- 3 1.0 2.0 124 124
- 0.124 1 2 cbr 1000 ------- 3 1.0 2.0 124 124
r 0.1248 1 2 cbr 1000 ------- 3 1.0 2.0 114 114
+ 0.125 1 2 cbr 1000 ------- 3 1.0 2.0 125 125
- 0.125 1 2 cbr 1000 ------- 3 1.0 2.0 125 125
r 0.1258 1 2 cbr 1000 ------- 3 1.0 2.0 115 115
+ 0.126 1 2 cbr 1000 ------- 3 1.0 2.0 126 126
- 0.126 1 2 cbr 1000 ------- 3 1.0 2.0 126 126
r 0.1268 1 2 cbr 1000 ------- 3 1.0 2.0 116 116
+ 0.127 1 2 cbr 1000 ------- 3 1.0 2.0 127 127
- 0.127 1 2 cbr 1000 ------- 3 1.0 2.0 127 127
r 0.1278 1 2 cbr 1000 ------- 3 1.0 2.0 117 117
+ 0.128 1 2 cbr 1000 ------- 3 1.0 2.0 128 128
- 0.128 1 2 cbr 1000 ------- 3 1.0 2.0 128 128
r 0.1288 1 2 cbr 1000 ------- 3 1.0 2.0 118 118
+ 0.129 1 2 cbr 1000 ------- 3 1.0 2.0 129 129
- 0.129 1 2 cbr 1000 ------- 3 1.0 2.0 129 129
r 0.1298 1 2 cbr 1000 ------- 3 1.0 2.0 119 119
+ 0.13 1 2 cbr 1000 ------- 3 1.0 2.0 130 130
- 0.13 1 2 cbr 1000 ------- 3 1.0 2.0 130 130
r 0.1308 1 2 cbr 1000 ------- 3 1.0 2.0 120 120
+ 0.131 1 2 cbr 1000 ------- 3 1.0 2.0 131 131
- 0.131 1 2 cbr 1000 ------- 3 1.0 2.0 131 131
r 0.1318 1 2 cbr 1000 ------- 3 1.0 2.0 121 121
+ 0.132 1 2 cbr 1000 ------- 3 1.0 2.0 132 132
- 0.132 1 2 cbr 1000 ------- 3 1.0 2.0 132 132
r 0.1328 1 2 cbr 1000 ------- 3 1.0 2.0 122 122
+ 0.133 1 2 cbr 1000 ------- 3 1.0 2.0 133 133
- 0.133 1 2 cbr 1000 ------- 3 1.0 2.0 133 133
r 0.1338 1 2 cbr 1000 ------- 3 1.0 2.0 123 123
+ 0.134 1 2 cbr 1000 ------- 3 1.0 2.0 134 134
- 0.134 1 2 cbr 1000 ------- 3 1.0 2.0 134 134
r 0.1348 1 2 cbr 1000 ------- 3 1.0 2.0 124 124
+ 0.135 1 2 cbr 1000 ------- 3 1.0 2.0 135 135
- 0.135 1 2 cbr 1000 ------- 3 1.0 2.0 135 135
r 0.1358 1 2 cbr 1000 ------- 3 1.0 2.0 125 125
+ 0.136 1 2 cbr 1000 ------- 3 1.0 2.0 136 136
- 0.136 1 2 cbr 1000 ------- 3 1.0 2.0 136 136
r 0.1368 1 2 cbr 1000 ------- 3 1.0 2.0 126 126
+ 0.137 1 2 cbr 1000 ------- 3 1.0 2.0 137 137
- 0.137 1 2 cbr 1000 ------- 3 1.0 2.0 137 137
r 0.1378 1 2 cbr 1000 ------- 3 1.0 2.0 127 127
+ 0.138 1 2 cbr 1000 ------- 3 1.0 2.0 138 138
- 0.138 1 2 cbr 1000 ------- 3 1.0 2.0 138 138
r 0.1388 1 2 cbr 1000 ------- 3 1.0 2.0 128 128
+ 0.139 1 2 cbr 1000 ------- 3 1.0 2.0 139 139
- 0.139 1 2 cbr 1000 ------- 3 1.0 2.0 139 139
r 0.1398 1 2 cbr 1000 ------- 3 1.0 2.0 129 129
+ 0.14 1 2 cbr 1000 ------- 3 1.0 2.0 140 140
- 0.14 1 2 cbr 1000 ------- 3 1.0 2.0 140 140
r 0.1408 1 2 cbr 1000 ------- 3 1.0 2.0 130 130
+ 0.141 1 2 cbr 1000 ------- 3 1.0 2.0 141 141
- 0.141 1 2 cbr 1000 ------- 3 1.0 2.0 141 141
r 0.1418 1 2 cbr 1000 ------- 3 1.0 2.0 131 131
+ 0.142 1 2 cbr 1000 ------- 3 1.0 2.0 142 142
- 0.142 1 2 cbr 1000 ------- 3 1.0 2.0 142 142
r 0.1428 1 2 cbr 1000 ------- 3 1.0 2.0 132 132
+ 0.143 1 2 cbr 1000 ------- 3 1.0 2.0 143 143
- 0.143 1 2 cbr 1000 ------- 3 1.0 2.0 143 143
r 0.1438 1 2 cbr 1000 ------- 3 1.0 2.0 133 133
+ 0.144 1 2 cbr 1000 ------- 3 1.0 2.0 144 144
- 0.144 1 2 cbr 1000 ------- 3 1.0 2.0 144 144
r 0.1448 1 2 cbr 1000 ------- 3 1.0 2.0 134 134
+ 0.145 1 2 cbr 1000 ------- 3 1.0 2.0 145 145
- 0.145 1 2 cbr 1000 ------- 3 1.0 2.0 145 145
r 0.1458 1 2 cbr 1000 ------- 3 1.0 2.0 135 135
+ 0.146 1 2 cbr 1000 ------- 3 1.0 2.0 146 146
- 0.146 1 2 cbr 1000 ------- 3 1.0 2.0 146 146
r 0.1468 1 2 cbr 1000 ------- 3 1.0 2.0 136 136
+ 0.147 1 2 cbr 1000 ------- 3 1.0 2.0 147 147
- 0.147 1 2 cbr 1000 ------- 3 1.0 2.0 147 147
r 0.1478 1 2 cbr 1000 ------- 3 1.0 2.0 137 137
+ 0.148 1 2 cbr 1000 ------- 3 1.0 2.0 148 148
- 0.148 1 2 cbr 1000 ------- 3 1.0 2.0 148 148
r 0.1488 1 2 cbr 1000 ------- 3 1.0 2.0 138 138
+ 0.149 1 2 cbr 1000 ------- 3 1.0 2.0 149 149
- 0.149 1 2 cbr 1000 ------- 3 1.0 2.0 149 149
r 0.1498 1 2 cbr 1000 ------- 3 1.0 2.0 139 139
+ 0.15 1 2 cbr 1000 ------- 3 1.0 2.0 150 150
- 0.15 1 2 cbr 1000 ------- 3 1.0 2.0 150 150
r 0.1508 1 2 cbr 1000 ------- 3 1.0 2.0 140 140
+ 0.151 1 2 cbr 1000 ------- 3 1.0 2.0 151 151
- 0.151 1 2 cbr 1000 ------- 3 1.0 2.0 151 151
r 0.1518 1 2 cbr 1000 ------- 3 1.0 2.0 141 141
+ 0.152 1 2 cbr 1000 ------- 3 1.0 2.0 152 152
- 0.152 1 2 cbr 1000 ------- 3 1.0 2.0 152 152
r 0.1528 1 2 cbr 1000 ------- 3 1.0 2.0 142 142
+ 0.153 1 2 cbr 1000 ------- 3 1.0 2.0 153 153
- 0.153 1 2 cbr 1000 ------- 3 1.0 2.0 153 153
r 0.1538 1 2 cbr 1000 ------- 3 1.0 2.0 143 143
+ 0.154 1 2 cbr 1000 ------- 3 1.0 2.0 154 154
- 0.154 1 2 cbr 1000 ------- 3 1.0 2.0 154 154
r 0.1548 1 2 cbr 1000 ------- 3 1.0 2.0 144 144
+ 0.155 1 2 cbr 1000 ------- 3 1.0 2.0 155 155
- 0.155 1 2 cbr 1000 ------- 3 1.0 2.0 155 155
r 0.1558 1 2 cbr 1000 ------- 3 1.0 2.0 145 145
+ 0.156 1 2 cbr 1000 ------- 3 1.0 2.0 156 156
- 0.156 1 2 cbr 1000 ------- 3 1.0 2.0 156 156
r 0.1568 1 2 cbr 1000 ------- 3 1.0 2.0 146 146
+ 0.157 1 2 cbr 1000 ------- 3 1.0 2.0 157 157
- 0.157 1 2 cbr 1000 ------- 3 1.0 2.0 157 157
r 0.1578 1 2 cbr 1000 ------- 3 1.0 2.0 147 147
+ 0.158 1 2 cbr 1000 ------- 3 1.0 2.0 158 158
- 0.158 1 2 cbr 1000 ------- 3 1.0 2.0 158 158
r 0.1588 1 2 cbr 1000 ------- 3 1.0 2.0 148 148
+ 0.159 1 2 cbr 1000 ------- 3 1.0 2.0 159 159
- 0.159 1 2 cbr 1000 ------- 3 1.0 2.0 159 159
r 0.1598 1 2 cbr 1000 ------- 3 1.0 2.0 149 149
+ 0.16 1 2 cbr 1000 ------- 3 1.0 2.0 160 160
- 0.16 1 2 cbr 1000 ------- 3 1.0 2.0 160 160
r 0.1608 1 2 cbr 1000 ------- 3 1.0 2.0 150 150
+ 0.161 1 2 cbr 1000 ------- 3 1.0 2.0 161 161
- 0.161 1 2 cbr 1000 ------- 3 1.0 2.0 161 161
r 0.1618 1 2 cbr 1000 ------- 3 1.0 2.0 151 151
+ 0.162 1 2 cbr 1000 ------- 3 1.0 2.0 162 162
- 0.162 1 2 cbr 1000 ------- 3 1.0 2.0 162 162
r 0.1628 1 2 cbr 1000 ------- 3 1.0 2.0 152 152
+ 0.163 1 2 cbr 1000 ------- 3 1.0 2.0 163 163
- 0.163 1 2 cbr 1000 ------- 3 1.0 2.0 163 163
r 0.1638 1 2 cbr 1000 ------- 3 1.0 2.0 153 153
+ 0.164 1 2 cbr 1000 ------- 3 1.0 2.0 164 164
- 0.164 1 2 cbr 1000 ------- 3 1.0 2.0 164 164
r 0.1648 1 2 cbr 1000 ------- 3 1.0 2.0 154 154
+ 0.165 1 2 cbr 1000 ------- 3 1.0 2.0 165 165
- 0.165 1 2 cbr 1000 ------- 3 1.0 2.0 165 165
r 0.1658 1 2 cbr 1000 ------- 3 1.0 2.0 155 155
+ 0.166 1 2 cbr 1000 ------- 3 1.0 2.0 166 166
- 0.166 1 2 cbr 1000 ------- 3 1.0 2.0 166 166
r 0.1668 1 2 cbr 1000 ------- 3 1.0 2.0 156 156
+ 0.167 1 2 cbr 1000 ------- 3 1.0 2.0 167 167
- 0.167 1 2 cbr 1000 ------- 3 1.0 2.0 167 167
r 0.1678 1 2 cbr 1000 ------- 3 1.0 2.0 157 157
+ 0.168 1 2 cbr 1000 ------- 3 1.0 2.0 168 168
- 0.168 1 2 cbr 1000 ------- 3 1.0 2.0 168 168
r 0.1688 1 2 cbr 1000 ------- 3 1.0 2.0 158 158
+ 0.169 1 2 cbr 1000 ------- 3 1.0 2.0 169 169
- 0.169 1 2 cbr 1000 ------- 3 1.0 2.0 169 169
r 0.1698 1 2 cbr 1000 ------- 3 1.0 2.0 159 159
+ 0.17 1 2 cbr 1000 ------- 3 1.0 2.0 170 170
- 0.17 1 2 cbr 1000 ------- 3 1.0 2.0 170 170
r 0.1708 1 2 cbr 1000 ------- 3 1.0 2.0 160 160
+ 0.171 1 2 cbr 1000 ------- 3 1.0 2.0 171 171
- 0.171 1 2 cbr 1000 ------- 3 1.0 2.0 171 171
r 0.1718 1 2 cbr 1000 ------- 3 1.0 2.0 161 161
+ 0.172 1 2 cbr 1000 ------- 3 1.0 2.0 172 172
- 0.172 1 2 cbr 1000 ------- 3 1.0 2.0 172 172
r 0.1728 1 2 cbr 1000 ------- 3 1.0 2.0 162 162
+ 0.173 1 2 cbr 1000 ------- 3 1.0 2.0 173 173
- 0.173 1 2 cbr 1000 ------- 3 1.0 2.0 173 173
r 0.1738 1 2 cbr 1000 ------- 3 1.0 2.0 163 163
+ 0.174 1 2 cbr 1000 ------- 3 1.0 2.0 174 174
- 0.174 1 2 cbr 1000 ------- 3 1.0 2.0 174 174
r 0.1748 1 2 cbr 1000 ------- 3 1.0 2.0 164 164
+ 0.175 1 2 cbr 1000 ------- 3 1.0 2.0 175 175
- 0.175 1 2 cbr 1000 ------- 3 1.0 2.0 175 175
r 0.1758 1 2 cbr 1000 ------- 3 1.0 2.0 165 165
+ 0.176 1 2 cbr 1000 ------- 3 1.0 2.0 176 176
- 0.176 1 2 cbr 1000 ------- 3 1.0 2.0 176 176
r 0.1768 1 2 cbr 1000 ------- 3 1.0 2.0 166 166
+ 0.177 1 2 cbr 1000 ------- 3 1.0 2.0 177 177
- 0.177 1 2 cbr 1000 ------- 3 1.0 2.0 177 177
r 0.1778 1 2 cbr 1000 ------- 3 1.0 2.0 167 167
+ 0.178 1 2 cbr 1000 ------- 3 1.0 2.0 178 178
- 0.178 1 2 cbr 1000 ------- 3 1.0 2.0 178 178
r 0.1788 1 2 cbr 1000 ------- 3 1.0 2.0 168 168
+ 0.179 1 2 cbr 1000 ------- 3 1.0 2.0 179 179
- 0.179 1 2 cbr 1000 ------- 3 1.0 2.0 179 179
r 0.1798 1 2 cbr 1000 ------- 3 1.0 2.0 169 169
+ 0.18 1 2 cbr 1000 ------- 3 1.0 2.0 180 180
- 0.18 1 2 cbr 1000 ------- 3 1.0 2.0 180 180
r 0.1808 1 2 cbr 1000 ------- 3 1.0 2.0 170 170
+ 0.181 1 2 cbr 1000 ------- 3 1.0 2.0 181 181
- 0.181 1 2 cbr 1000 ------- 3 1.0 2.0 181 181
r 0.1818 1 2 cbr 1000 ------- 3 1.0 2.0 171 171
+ 0.182 1 2 cbr 1000 ------- 3 1.0 2.0 182 182
- 0.182 1 2 cbr 1000 ------- 3 1.0 2.0 182 182
r 0.1828 1 2 cbr 1000 ------- 3 1.0 2.0 172 172
+ 0.183 1 2 cbr 1000 ------- 3 1.0 2.0 183 183
- 0.183 1 2 cbr 1000 ------- 3 1.0 2.0 183 183
r 0.1838 1 2 cbr 1000 ------- 3 1.0 2.0 173 173
+ 0.184 1 2 cbr 1000 ------- 3 1.0 2.0 184 184
- 0.184 1 2 cbr 1000 ------- 3 1.0 2.0 184 184
r 0.1848 1 2 cbr 1000 ------- 3 1.0 2.0 174 174
+ 0.185 1 2 cbr 1000 ------- 3 1.0 2.0 185 185
- 0.185 1 2 cbr 1000 ------- 3 1.0 2.0 185 185
r 0.1858 1 2 cbr 1000 ------- 3 1.0 2.0 175 175
+ 0.186 1 2 cbr 1000 ------- 3 1.0 2.0 186 186
- 0.186 1 2 cbr 1000 ------- 3 1.0 2.0 186 186
r 0.1868 1 2 cbr 1000 ------- 3 1.0 2.0 176 176
+ 0.187 1 2 cbr 1000 ------- 3 1.0 2.0 187 187
- 0.187 1 2 cbr 1000 ------- 3 1.0 2.0 187 187
r 0.1878 1 2 cbr 1000 ------- 3 1.0 2.0 177 177
+ 0.188 1 2 cbr 1000 ------- 3 1.0 2.0 188 188
- 0.188 1 2 cbr 1000 ------- 3 1.0 2.0 188 188
r 0.1888 1 2 cbr 1000 ------- 3 1.0 2.0 178 178
+ 0.189 1 2 cbr 1000 ------- 3 1.0 2.0 189 189
- 0.189 1 2 cbr 1000 ------- 3 1.0 2.0 189 189
r 0.1898 1 2 cbr 1000 ------- 3 1.0 2.0 179 179
+ 0.19 1 2 cbr 1000 ------- 3 1.0 2.0 190 190
- 0.19 1 2 cbr 1000 ------- 3 1.0 2.0 190 190
r 0.1908 1 2 cbr 1000 ------- 3 1.0 2.0 180 180
+ 0.191 1 2 cbr 1000 ------- 3 1.0 2.0 191 191
- 0.191 1 2 cbr 1000 ------- 3 1.0 2.0 191 191
r 0.1918 1 2 cbr 1000 ------- 3 1.0 2.0 181 181
+ 0.192 1 2 cbr 1000 ------- 3 1.0 2.0 192 192
- 0.192 1 2 cbr 1000 ------- 3 1.0 2.0 192 192
r 0.1928 1 2 cbr 1000 ------- 3 1.0 2.0 182 182
+ 0.193 1 2 cbr 1000 ------- 3 1.0 2.0 193 193
- 0.193 1 2 cbr 1000 ------- 3 1.0 2.0 193 193
r 0.1938 1 2 cbr 1000 ------- 3 1.0 2.0 183 183
+ 0.194 1 2 cbr 1000 ------- 3 1.0 2.0 194 194
- 0.194 1 2 cbr 1000 ------- 3 1.0 2.0 194 194
r 0.1948 1 2 cbr 1000 ------- 3 1.0 2.0 184 184
+ 0.195 1 2 cbr 1000 ------- 3 1.0 2.0 195 195
- 0.195 1 2 cbr 1000 ------- 3 1.0 2.0 195 195
r 0.1958 1 2 cbr 1000 ------- 3 1.0 2.0 185 185
+ 0.196 1 2 cbr 1000 ------- 3 1.0 2.0 196 196
- 0.196 1 2 cbr 1000 ------- 3 1.0 2.0 196 196
r 0.1968 1 2 cbr 1000 ------- 3 1.0 2.0 186 186
+ 0.197 1 2 cbr 1000 ------- 3 1.0 2.0 197 197
- 0.197 1 2 cbr 1000 ------- 3 1.0 2.0 197 197
r 0.1978 1 2 cbr 1000 ------- 3 1.0 2.0 187 187
+ 0.198 1 2 cbr 1000 ------- 3 1.0 2.0 198 198
- 0.198 1 2 cbr 1000 ------- 3 1.0 2.0 198 198
r 0.1988 1 2 cbr 1000 ------- 3 1.0 2.0 188 188
+ 0.199 1 2 cbr 1000 ------- 3 1.0 2.0 199 199
- 0.199 1 2 cbr 1000 ------- 3 1.0 2.0 199 199
r 0.1998 1 2 cbr 1000 ------- 3 1.0 2.0 189 189
+ 0.2 1 2 cbr 1000 ------- 3 1.0 2.0 200 200
- 0.2 1 2 cbr 1000 ------- 3 1.0 2.0 200 200
r 0.2008 1 2 cbr 1000 ------- 3 1.0 2.0 190 190
+ 0.201 1 2 cbr 1000 ------- 3 1.0 2.0 201 201
- 0.201 1 2 cbr 1000 ------- 3 1.0 2.0 201 201
r 0.2018 1 2 cbr 1000 ------- 3 1.0 2.0 191 191
+ 0.202 1 2 cbr 1000 ------- 3 1.0 2.0 202 202
- 0.202 1 2 cbr 1000 ------- 3 1.0 2.0 202 202
r 0.2028 1 2 cbr 1000 ------- 3 1.0 2.0 192 192
+ 0.203 1 2 cbr 1000 ------- 3 1.0 2.0 203 203
- 0.203 1 2 cbr 1000 ------- 3 1.0 2.0 203 203
r 0.2038 1 2 cbr 1000 ------- 3 1.0 2.0 193 193
+ 0.204 1 2 cbr 1000 ------- 3 1.0 2.0 204 204
- 0.204 1 2 cbr 1000 ------- 3 1.0 2.0 204 204
r 0.2048 1 2 cbr 1000 ------- 3 1.0 2.0 194 194
+ 0.205 1 2 cbr 1000 ------- 3 1.0 2.0 205 205
- 0.205 1 2 cbr 1000 ------- 3 1.0 2.0 205 205
r 0.2058 1 2 cbr 1000 ------- 3 1.0 2.0 195 195
+ 0.206 1 2 cbr 1000 ------- 3 1.0 2.0 206 206
- 0.206 1 2 cbr 1000 ------- 3 1.0 2.0 206 206
r 0.2068 1 2 cbr 1000 ------- 3 1.0 2.0 196 196
+ 0.207 1 2 cbr 1000 ------- 3 1.0 2.0 207 207
- 0.207 1 2 cbr 1000 ------- 3 1.0 2.0 207 207
r 0.2078 1 2 cbr 1000 ------- 3 1.0 2.0 197 197
+ 0.208 1 2 cbr 1000 ------- 3 1.0 2.0 208 208
- 0.208 1 2 cbr 1000 ------- 3 1.0 2.0 208 208
r 0.2088 1 2 cbr 1000 ------- 3 1.0 2.0 198 198
+ 0.209 1 2 cbr 1000 ------- 3 1.0 2.0 209 209
- 0.209 1 2 cbr 1000 ------- 3 1.0 2.0 209 209
r 0.2098 1 2 cbr 1000 ------- 3 1.0 2.0 199 199
+ 0.21 1 2 cbr 1000 ------- 3 1.0 2.0 210 210
- 0.21 1 2 cbr 1000 ------- 3 1.0 2.0 210 210
r 0.2108 1 2 cbr 1000 ------- 3 1.0 2.0 200 200
+ 0.211 1 2 cbr 1000 ------- 3 1.0 2.0 211 211
- 0.211 1 2 cbr 1000 ------- 3 1.0 2.0 211 211
r 0.2118 1 2 cbr 1000 ------- 3 1.0 2.0 201 201
+ 0.212 1 2 cbr 1000 ------- 3 1.0 2.0 212 212
- 0.212 1 2 cbr 1000 ------- 3 1.0 2.0 212 212
r 0.2128 1 2 cbr 1000 ------- 3 1.0 2.0 202 202
+ 0.213 1 2 cbr 1000 ------- 3 1.0 2.0 213 213
- 0.213 1 2 cbr 1000 ------- 3 1.0 2.0 213 213
r 0.2138 1 2 cbr 1000 ------- 3 1.0 2.0 203 203
+ 0.214 1 2 cbr 1000 ------- 3 1.0 2.0 214 214
- 0.214 1 2 cbr 1000 ------- 3 1.0 2.0 214 214
r 0.2148 1 2 cbr 1000 ------- 3 1.0 2.0 204 204
+ 0.215 1 2 cbr 1000 ------- 3 1.0 2.0 215 215
- 0.215 1 2 cbr 1000 ------- 3 1.0 2.0 215 215
r 0.2158 1 2 cbr 1000 ------- 3 1.0 2.0 205 205
+ 0.216 1 2 cbr 1000 ------- 3 1.0 2.0 216 216
- 0.216 1 2 cbr 1000 ------- 3 1.0 2.0 216 216
r 0.2168 1 2 cbr 1000 ------- 3 1.0 2.0 206 206
+ 0.217 1 2 cbr 1000 ------- 3 1.0 2.0 217 217
- 0.217 1 2 cbr 1000 ------- 3 1.0 2.0 217 217
r 0.2178 1 2 cbr 1000 ------- 3 1.0 2.0 207 207
+ 0.218 1 2 cbr 1000 ------- 3 1.0 2.0 218 218
- 0.218 1 2 cbr 1000 ------- 3 1.0 2.0 218 218
r 0.2188 1 2 cbr 1000 ------- 3 1.0 2.0 208 208
+ 0.219 1 2 cbr 1000 ------- 3 1.0 2.0 219 219
- 0.219 1 2 cbr 1000 ------- 3 1.0 2.0 219 219