+ 0 1 2 cbr 1000 ------- 2 1.0 2.0 0 0
- 0 1 2 cbr 1000 ------- 2 1.0 2.0 0 0
+ 0.001333 1 2 cbr 1000 ------- 2 1.0 2.0 1 1
- 0.001333 1 2 cbr 1000 ------- 2 1.0 2.0 1 1
+ 0.002667 1 2 cbr 1000 ------- 2 1.0 2.0 2 2
- 0.002667 1 2 cbr 1000 ------- 2 1.0 2.0 2 2
+ 0.004 1 2 cbr 1000 ------- 2 1.0 2.0 3 3
- 0.004 1 2 cbr 1000 ------- 2 1.0 2.0 3 3
+ 0.005333 1 2 cbr 1000 ------- 2 1.0 2.0 4 4
- 0.005333 1 2 cbr 1000 ------- 2 1.0 2.0 4 4
+ 0.006667 1 2 cbr 1000 ------- 2 1.0 2.0 5 5
- 0.006667 1 2 cbr 1000 ------- 2 1.0 2.0 5 5
+ 0.008 1 2 cbr 1000 ------- 2 1.0 2.0 6 6
- 0.008 1 2 cbr 1000 ------- 2 1.0 2.0 6 6
+ 0.009333 1 2 cbr 1000 ------- 2 1.0 2.0 7 7
- 0.009333 1 2 cbr 1000 ------- 2 1.0 2.0 7 7
+ 0.010667 1 2 cbr 1000 ------- 2 1.0 2.0 8 8
- 0.010667 1 2 cbr 1000 ------- 2 1.0 2.0 8 8
r 0.0108 1 2 cbr 1000 ------- 2 1.0 2.0 0 0
+ 0.012 1 2 cbr 1000 ------- 2 1.0 2.0 9 9
- 0.012 1 2 cbr 1000 ------- 2 1.0 2.0 9 9
r 0.012133 1 2 cbr 1000 ------- 2 1.0 2.0 1 1
+ 0.013333 1 2 cbr 1000 ------- 2 1.0 2.0 10 10
- 0.013333 1 2 cbr 1000 ------- 2 1.0 2.0 10 10
r 0.013467 1 2 cbr 1000 ------- 2 1.0 2.0 2 2
+ 0.014667 1 2 cbr 1000 ------- 2 1.0 2.0 11 11
- 0.014667 1 2 cbr 1000 ------- 2 1.0 2.0 11 11
r 0.0148 1 2 cbr 1000 ------- 2 1.0 2.0 3 3
+ 0.016 1 2 cbr 1000 ------- 2 1.0 2.0 12 12
- 0.016 1 2 cbr 1000 ------- 2 1.0 2.0 12 12
r 0.016133 1 2 cbr 1000 ------- 2 1.0 2.0 4 4
+ 0.017333 1 2 cbr 1000 ------- 2 1.0 2.0 13 13
- 0.017333 1 2 cbr 1000 ------- 2 1.0 2.0 13 13
r 0.017467 1 2 cbr 1000 ------- 2 1.0 2.0 5 5
+ 0.018667 1 2 cbr 1000 ------- 2 1.0 2.0 14 14
- 0.018667 1 2 cbr 1000 ------- 2 1.0 2.0 14 14
r 0.0188 1 2 cbr 1000 ------- 2 1.0 2.0 6 6
+ 0.02 1 2 cbr 1000 ------- 2 1.0 2.0 15 15
- 0.02 1 2 cbr 1000 ------- 2 1.0 2.0 15 15
r 0.020133 1 2 cbr 1000 ------- 2 1.0 2.0 7 7
+ 0.021333 1 2 cbr 1000 ------- 2 1.0 2.0 16 16
- 0.021333 1 2 cbr 1000 ------- 2 1.0 2.0 16 16
r 0.021467 1 2 cbr 1000 ------- 2 1.0 2.0 8 8
+ 0.022667 1 2 cbr 1000 ------- 2 1.0 2.0 17 17
- 0.022667 1 2 cbr 1000 ------- 2 1.0 2.0 17 17
r 0.0228 1 2 cbr 1000 ------- 2 1.0 2.0 9 9
+ 0.024 1 2 cbr 1000 ------- 2 1.0 2.0 18 18
- 0.024 1 2 cbr 1000 ------- 2 1.0 2.0 18 18
r 0.024133 1 2 cbr 1000 ------- 2 1.0 2.0 10 10
+ 0.025333 1 2 cbr 1000 ------- 2 1.0 2.0 19 19
- 0.025333 1 2 cbr 1000 ------- 2 1.0 2.0 19 19
r 0.025467 1 2 cbr 1000 ------- 2 1.0 2.0 11 11
+ 0.026667 1 2 cbr 1000 ------- 2 1.0 2.0 20 20
- 0.026667 1 2 cbr 1000 ------- 2 1.0 2.0 20 20
r 0.0268 1 2 cbr 1000 ------- 2 1.0 2.0 12 12
+ 0.028 1 2 cbr 1000 ------- 2 1.0 2.0 21 21
- 0.028 1 2 cbr 1000 ------- 2 1.0 2.0 21 21
r 0.028133 1 2 cbr 1000 ------- 2 1.0 2.0 13 13
+ 0.029333 1 2 cbr 1000 ------- 2 1.0 2.0 22 22
- 0.029333 1 2 cbr 1000 ------- 2 1.0 2.0 22 22
r 0.029467 1 2 cbr 1000 ------- 2 1.0 2.0 14 14
+ 0.030667 1 2 cbr 1000 ------- 2 1.0 2.0 23 23
- 0.030667 1 2 cbr 1000 ------- 2 1.0 2.0 23 23
r 0.0308 1 2 cbr 1000 ------- 2 1.0 2.0 15 15
+ 0.032 1 2 cbr 1000 ------- 2 1.0 2.0 24 24
- 0.032 1 2 cbr 1000 ------- 2 1.0 2.0 24 24
r 0.032133 1 2 cbr 1000 ------- 2 1.0 2.0 16 16
+ 0.033333 1 2 cbr 1000 ------- 2 1.0 2.0 25 25
- 0.033333 1 2 cbr 1000 ------- 2 1.0 2.0 25 25
r 0.033467 1 2 cbr 1000 ------- 2 1.0 2.0 17 17
+ 0.034667 1 2 cbr 1000 ------- 2 1.0 2.0 26 26
- 0.034667 1 2 cbr 1000 ------- 2 1.0 2.0 26 26
r 0.0348 1 2 cbr 1000 ------- 2 1.0 2.0 18 18
+ 0.036 1 2 cbr 1000 ------- 2 1.0 2.0 27 27
- 0.036 1 2 cbr 1000 ------- 2 1.0 2.0 27 27
r 0.036133 1 2 cbr 1000 ------- 2 1.0 2.0 19 19
+ 0.037333 1 2 cbr 1000 ------- 2 1.0 2.0 28 28
- 0.037333 1 2 cbr 1000 ------- 2 1.0 2.0 28 28
r 0.037467 1 2 cbr 1000 ------- 2 1.0 2.0 20 20
+ 0.038667 1 2 cbr 1000 ------- 2 1.0 2.0 29 29
- 0.038667 1 2 cbr 1000 ------- 2 1.0 2.0 29 29
r 0.0388 1 2 cbr 1000 ------- 2 1.0 2.0 21 21
+ 0.04 1 2 cbr 1000 ------- 2 1.0 2.0 30 30
- 0.04 1 2 cbr 1000 ------- 2 1.0 2.0 30 30
r 0.040133 1 2 cbr 1000 ------- 2 1.0 2.0 22 22
+ 0.041333 1 2 cbr 1000 ------- 2 1.0 2.0 31 31
- 0.041333 1 2 cbr 1000 ------- 2 1.0 2.0 31 31
r 0.041467 1 2 cbr 1000 ------- 2 1.0 2.0 23 23
+ 0.042667 1 2 cbr 1000 ------- 2 1.0 2.0 32 32
- 0.042667 1 2 cbr 1000 ------- 2 1.0 2.0 32 32
r 0.0428 1 2 cbr 1000 ------- 2 1.0 2.0 24 24
+ 0.044 1 2 cbr 1000 ------- 2 1.0 2.0 33 33
- 0.044 1 2 cbr 1000 ------- 2 1.0 2.0 33 33
r 0.044133 1 2 cbr 1000 ------- 2 1.0 2.0 25 25
+ 0.045333 1 2 cbr 1000 ------- 2 1.0 2.0 34 34
- 0.045333 1 2 cbr 1000 ------- 2 1.0 2.0 34 34
r 0.045467 1 2 cbr 1000 ------- 2 1.0 2.0 26 26
+ 0.046667 1 2 cbr 1000 ------- 2 1.0 2.0 35 35
- 0.046667 1 2 cbr 1000 ------- 2 1.0 2.0 35 35
r 0.0468 1 2 cbr 1000 ------- 2 1.0 2.0 27 27
+ 0.048 1 2 cbr 1000 ------- 2 1.0 2.0 36 36
- 0.048 1 2 cbr 1000 ------- 2 1.0 2.0 36 36
r 0.048133 1 2 cbr 1000 ------- 2 1.0 2.0 28 28
+ 0.049333 1 2 cbr 1000 ------- 2 1.0 2.0 37 37
- 0.049333 1 2 cbr 1000 ------- 2 1.0 2.0 37 37
r 0.049467 1 2 cbr 1000 ------- 2 1.0 2.0 29 29
+ 0.050667 1 2 cbr 1000 ------- 2 1.0 2.0 38 38
- 0.050667 1 2 cbr 1000 ------- 2 1.0 2.0 38 38
r 0.0508 1 2 cbr 1000 ------- 2 1.0 2.0 30 30
+ 0.052 1 2 cbr 1000 ------- 2 1.0 2.0 39 39
- 0.052 1 2 cbr 1000 ------- 2 1.0 2.0 39 39
r 0.052133 1 2 cbr 1000 ------- 2 1.0 2.0 31 31
+ 0.053333 1 2 cbr 1000 ------- 2 1.0 2.0 40 40
- 0.053333 1 2 cbr 1000 ------- 2 1.0 2.0 40 40
r 0.053467 1 2 cbr 1000 ------- 2 1.0 2.0 32 32
+ 0.054667 1 2 cbr 1000 ------- 2 1.0 2.0 41 41
- 0.054667 1 2 cbr 1000 ------- 2 1.0 2.0 41 41
r 0.0548 1 2 cbr 1000 ------- 2 1.0 2.0 33 33
+ 0.056 1 2 cbr 1000 ------- 2 1.0 2.0 42 42
- 0.056 1 2 cbr 1000 ------- 2 1.0 2.0 42 42
r 0.056133 1 2 cbr 1000 ------- 2 1.0 2.0 34 34
+ 0.057333 1 2 cbr 1000 ------- 2 1.0 2.0 43 43
- 0.057333 1 2 cbr 1000 ------- 2 1.0 2.0 43 43
r 0.057467 1 2 cbr 1000 ------- 2 1.0 2.0 35 35
+ 0.058667 1 2 cbr 1000 ------- 2 1.0 2.0 44 44
- 0.058667 1 2 cbr 1000 ------- 2 1.0 2.0 44 44
r 0.0588 1 2 cbr 1000 ------- 2 1.0 2.0 36 36
+ 0.06 1 2 cbr 1000 ------- 2 1.0 2.0 45 45
- 0.06 1 2 cbr 1000 ------- 2 1.0 2.0 45 45
r 0.060133 1 2 cbr 1000 ------- 2 1.0 2.0 37 37
+ 0.061333 1 2 cbr 1000 ------- 2 1.0 2.0 46 46
- 0.061333 1 2 cbr 1000 ------- 2 1.0 2.0 46 46
r 0.061467 1 2 cbr 1000 ------- 2 1.0 2.0 38 38
+ 0.062667 1 2 cbr 1000 ------- 2 1.0 2.0 47 47
- 0.062667 1 2 cbr 1000 ------- 2 1.0 2.0 47 47
r 0.0628 1 2 cbr 1000 ------- 2 1.0 2.0 39 39
+ 0.064 1 2 cbr 1000 ------- 2 1.0 2.0 48 48
- 0.064 1 2 cbr 1000 ------- 2 1.0 2.0 48 48
r 0.064133 1 2 cbr 1000 ------- 2 1.0 2.0 40 40
+ 0.065333 1 2 cbr 1000 ------- 2 1.0 2.0 49 49
- 0.065333 1 2 cbr 1000 ------- 2 1.0 2.0 49 49
r 0.065467 1 2 cbr 1000 ------- 2 1.0 2.0 41 41
+ 0.066667 1 2 cbr 1000 ------- 2 1.0 2.0 50 50
- 0.066667 1 2 cbr 1000 ------- 2 1.0 2.0 50 50
r 0.0668 1 2 cbr 1000 ------- 2 1.0 2.0 42 42
+ 0.068 1 2 cbr 1000 ------- 2 1.0 2.0 51 51
- 0.068 1 2 cbr 1000 ------- 2 1.0 2.0 51 51
r 0.068133 1 2 cbr 1000 ------- 2 1.0 2.0 43 43
+ 0.069333 1 2 cbr 1000 ------- 2 1.0 2.0 52 52
- 0.069333 1 2 cbr 1000 ------- 2 1.0 2.0 52 52
r 0.069467 1 2 cbr 1000 ------- 2 1.0 2.0 44 44
+ 0.070667 1 2 cbr 1000 ------- 2 1.0 2.0 53 53
- 0.070667 1 2 cbr 1000 ------- 2 1.0 2.0 53 53
r 0.0708 1 2 cbr 1000 ------- 2 1.0 2.0 45 45
+ 0.072 1 2 cbr 1000 ------- 2 1.0 2.0 54 54
- 0.072 1 2 cbr 1000 ------- 2 1.0 2.0 54 54
r 0.072133 1 2 cbr 1000 ------- 2 1.0 2.0 46 46
+ 0.073333 1 2 cbr 1000 ------- 2 1.0 2.0 55 55
- 0.073333 1 2 cbr 1000 ------- 2 1.0 2.0 55 55
r 0.073467 1 2 cbr 1000 ------- 2 1.0 2.0 47 47
+ 0.074667 1 2 cbr 1000 ------- 2 1.0 2.0 56 56
- 0.074667 1 2 cbr 1000 ------- 2 1.0 2.0 56 56
r 0.0748 1 2 cbr 1000 ------- 2 1.0 2.0 48 48
+ 0.076 1 2 cbr 1000 ------- 2 1.0 2.0 57 57
- 0.076 1 2 cbr 1000 ------- 2 1.0 2.0 57 57
r 0.076133 1 2 cbr 1000 ------- 2 1.0 2.0 49 49
+ 0.077333 1 2 cbr 1000 ------- 2 1.0 2.0 58 58
- 0.077333 1 2 cbr 1000 ------- 2 1.0 2.0 58 58
r 0.077467 1 2 cbr 1000 ------- 2 1.0 2.0 50 50
+ 0.078667 1 2 cbr 1000 ------- 2 1.0 2.0 59 59
- 0.078667 1 2 cbr 1000 ------- 2 1.0 2.0 59 59
r 0.0788 1 2 cbr 1000 ------- 2 1.0 2.0 51 51
+ 0.08 1 2 cbr 1000 ------- 2 1.0 2.0 60 60
- 0.08 1 2 cbr 1000 ------- 2 1.0 2.0 60 60
r 0.080133 1 2 cbr 1000 ------- 2 1.0 2.0 52 52
+ 0.081333 1 2 cbr 1000 ------- 2 1.0 2.0 61 61
- 0.081333 1 2 cbr 1000 ------- 2 1.0 2.0 61 61
r 0.081467 1 2 cbr 1000 ------- 2 1.0 2.0 53 53
+ 0.082667 1 2 cbr 1000 ------- 2 1.0 2.0 62 62
- 0.082667 1 2 cbr 1000 ------- 2 1.0 2.0 62 62
r 0.0828 1 2 cbr 1000 ------- 2 1.0 2.0 54 54
+ 0.084 1 2 cbr 1000 ------- 2 1.0 2.0 63 63
- 0.084 1 2 cbr 1000 ------- 2 1.0 2.0 63 63
r 0.084133 1 2 cbr 1000 ------- 2 1.0 2.0 55 55
+ 0.085333 1 2 cbr 1000 ------- 2 1.0 2.0 64 64
- 0.085333 1 2 cbr 1000 ------- 2 1.0 2.0 64 64
r 0.085467 1 2 cbr 1000 ------- 2 1.0 2.0 56 56
+ 0.086667 1 2 cbr 1000 ------- 2 1.0 2.0 65 65
- 0.086667 1 2 cbr 1000 ------- 2 1.0 2.0 65 65
r 0.0868 1 2 cbr 1000 ------- 2 1.0 2.0 57 57
+ 0.088 1 2 cbr 1000 ------- 2 1.0 2.0 66 66
- 0.088 1 2 cbr 1000 ------- 2 1.0 2.0 66 66
r 0.088133 1 2 cbr 1000 ------- 2 1.0 2.0 58 58
+ 0.089333 1 2 cbr 1000 ------- 2 1.0 2.0 67 67
- 0.089333 1 2 cbr 1000 ------- 2 1.0 2.0 67 67
r 0.089467 1 2 cbr 1000 ------- 2 1.0 2.0 59 59
+ 0.090667 1 2 cbr 1000 ------- 2 1.0 2.0 68 68
- 0.090667 1 2 cbr 1000 ------- 2 1.0 2.0 68 68
r 0.0908 1 2 cbr 1000 ------- 2 1.0 2.0 60 60
+ 0.092 1 2 cbr 1000 ------- 2 1.0 2.0 69 69
- 0.092 1 2 cbr 1000 ------- 2 1.0 2.0 69 69
r 0.092133 1 2 cbr 1000 ------- 2 1.0 2.0 61 61
+ 0.093333 1 2 cbr 1000 ------- 2 1.0 2.0 70 70
- 0.093333 1 2 cbr 1000 ------- 2 1.0 2.0 70 70
r 0.093467 1 2 cbr 1000 ------- 2 1.0 2.0 62 62
+ 0.094667 1 2 cbr 1000 ------- 2 1.0 2.0 71 71
- 0.094667 1 2 cbr 1000 ------- 2 1.0 2.0 71 71
r 0.0948 1 2 cbr 1000 ------- 2 1.0 2.0 63 63
+ 0.096 1 2 cbr 1000 ------- 2 1.0 2.0 72 72
- 0.096 1 2 cbr 1000 ------- 2 1.0 2.0 72 72
r 0.096133 1 2 cbr 1000 ------- 2 1.0 2.0 64 64
+ 0.097333 1 2 cbr 1000 ------- 2 1.0 2.0 73 73
- 0.097333 1 2 cbr 1000 ------- 2 1.0 2.0 73 73
r 0.097467 1 2 cbr 1000 ------- 2 1.0 2.0 65 65
+ 0.098667 1 2 cbr 1000 ------- 2 1.0 2.0 74 74
- 0.098667 1 2 cbr 1000 ------- 2 1.0 2.0 74 74
r 0.0988 1 2 cbr 1000 ------- 2 1.0 2.0 66 66
+ 0.1 1 2 cbr 1000 ------- 2 1.0 2.0 75 75
- 0.1 1 2 cbr 1000 ------- 2 1.0 2.0 75 75
r 0.100133 1 2 cbr 1000 ------- 2 1.0 2.0 67 67
+ 0.101333 1 2 cbr 1000 ------- 2 1.0 2.0 76 76
- 0.101333 1 2 cbr 1000 ------- 2 1.0 2.0 76 76
r 0.101467 1 2 cbr 1000 ------- 2 1.0 2.0 68 68
+ 0.102667 1 2 cbr 1000 ------- 2 1.0 2.0 77 77
- 0.102667 1 2 cbr 1000 ------- 2 1.0 2.0 77 77
r 0.1028 1 2 cbr 1000 ------- 2 1.0 2.0 69 69
+ 0.104 1 2 cbr 1000 ------- 2 1.0 2.0 78 78
- 0.104 1 2 cbr 1000 ------- 2 1.0 2.0 78 78
r 0.104133 1 2 cbr 1000 ------- 2 1.0 2.0 70 70
+ 0.105333 1 2 cbr 1000 ------- 2 1.0 2.0 79 79
- 0.105333 1 2 cbr 1000 ------- 2 1.0 2.0 79 79
r 0.105467 1 2 cbr 1000 ------- 2 1.0 2.0 71 71
+ 0.106667 1 2 cbr 1000 ------- 2 1.0 2.0 80 80
- 0.106667 1 2 cbr 1000 ------- 2 1.0 2.0 80 80
r 0.1068 1 2 cbr 1000 ------- 2 1.0 2.0 72 72
+ 0.108 1 2 cbr 1000 ------- 2 1.0 2.0 81 81
- 0.108 1 2 cbr 1000 ------- 2 1.0 2.0 81 81
r 0.108133 1 2 cbr 1000 ------- 2 1.0 2.0 73 73
+ 0.109333 1 2 cbr 1000 ------- 2 1.0 2.0 82 82
- 0.109333 1 2 cbr 1000 ------- 2 1.0 2.0 82 82
r 0.109467 1 2 cbr 1000 ------- 2 1.0 2.0 74 74
+ 0.110667 1 2 cbr 1000 ------- 2 1.0 2.0 83 83
- 0.110667 1 2 cbr 1000 ------- 2 1.0 2.0 83 83
r 0.1108 1 2 cbr 1000 ------- 2 1.0 2.0 75 75
+ 0.112 1 2 cbr 1000 ------- 2 1.0 2.0 84 84
- 0.112 1 2 cbr 1000 ------- 2 1.0 2.0 84 84
r 0.112133 1 2 cbr 1000 ------- 2 1.0 2.0 76 76
+ 0.113333 1 2 cbr 1000 ------- 2 1.0 2.0 85 85
- 0.113333 1 2 cbr 1000 ------- 2 1.0 2.0 85 85
r 0.113467 1 2 cbr 1000 ------- 2 1.0 2.0 77 77
+ 0.114667 1 2 cbr 1000 ------- 2 1.0 2.0 86 86
- 0.114667 1 2 cbr 1000 ------- 2 1.0 2.0 86 86
r 0.1148 1 2 cbr 1000 ------- 2 1.0 2.0 78 78
+ 0.116 1 2 cbr 1000 ------- 2 1.0 2.0 87 87
- 0.116 1 2 cbr 1000 ------- 2 1.0 2.0 87 87
r 0.116133 1 2 cbr 1000 ------- 2 1.0 2.0 79 79
+ 0.117333 1 2 cbr 1000 ------- 2 1.0 2.0 88 88
- 0.117333 1 2 cbr 1000 ------- 2 1.0 2.0 88 88
r 0.117467 1 2 cbr 1000 ------- 2 1.0 2.0 80 80
+ 0.118667 1 2 cbr 1000 ------- 2 1.0 2.0 89 89
- 0.118667 1 2 cbr 1000 ------- 2 1.0 2.0 89 89
r 0.1188 1 2 cbr 1000 ------- 2 1.0 2.0 81 81
+ 0.12 1 2 cbr 1000 ------- 2 1.0 2.0 90 90
- 0.12 1 2 cbr 1000 ------- 2 1.0 2.0 90 90
r 0.120133 1 2 cbr 1000 ------- 2 1.0 2.0 82 82
+ 0.121333 1 2 cbr 1000 ------- 2 1.0 2.0 91 91
- 0.121333 1 2 cbr 1000 ------- 2 1.0 2.0 91 91
r 0.121467 1 2 cbr 1000 ------- 2 1.0 2.0 83 83
+ 0.122667 1 2 cbr 1000 ------- 2 1.0 2.0 92 92
- 0.122667 1 2 cbr 1000 ------- 2 1.0 2.0 92 92
r 0.1228 1 2 cbr 1000 ------- 2 1.0 2.0 84 84
+ 0.124 1 2 cbr 1000 ------- 2 1.0 2.0 93 93
- 0.124 1 2 cbr 1000 ------- 2 1.0 2.0 93 93
r 0.124133 1 2 cbr 1000 ------- 2 1.0 2.0 85 85
+ 0.125333 1 2 cbr 1000 ------- 2 1.0 2.0 94 94
- 0.125333 1 2 cbr 1000 ------- 2 1.0 2.0 94 94
r 0.125467 1 2 cbr 1000 ------- 2 1.0 2.0 86 86
+ 0.126667 1 2 cbr 1000 ------- 2 1.0 2.0 95 95
- 0.126667 1 2 cbr 1000 ------- 2 1.0 2.0 95 95
r 0.1268 1 2 cbr 1000 ------- 2 1.0 2.0 87 87
+ 0.128 1 2 cbr 1000 ------- 2 1.0 2.0 96 96
- 0.128 1 2 cbr 1000 ------- 2 1.0 2.0 96 96
r 0.128133 1 2 cbr 1000 ------- 2 1.0 2.0 88 88
+ 0.129333 1 2 cbr 1000 ------- 2 1.0 2.0 97 97
- 0.129333 1 2 cbr 1000 ------- 2 1.0 2.0 97 97
r 0.129467 1 2 cbr 1000 ------- 2 1.0 2.0 89 89
+ 0.130667 1 2 cbr 1000 ------- 2 1.0 2.0 98 98
- 0.130667 1 2 cbr 1000 ------- 2 1.0 2.0 98 98
r 0.1308 1 2 cbr 1000 ------- 2 1.0 2.0 90 90
+ 0.132 1 2 cbr 1000 ------- 2 1.0 2.0 99 99
- 0.132 1 2 cbr 1000 ------- 2 1.0 2.0 99 99
r 0.132133 1 2 cbr 1000 ------- 2 1.0 2.0 91 91
+ 0.133333 1 2 cbr 1000 ------- 2 1.0 2.0 100 100
- 0.133333 1 2 cbr 1000 ------- 2 1.0 2.0 100 100
r 0.133467 1 2 cbr 1000 ------- 2 1.0 2.0 92 92
+ 0.134667 1 2 cbr 1000 ------- 2 1.0 2.0 101 101
- 0.134667 1 2 cbr 1000 ------- 2 1.0 2.0 101 101
r 0.1348 1 2 cbr 1000 ------- 2 1.0 2.0 93 93
+ 0.136 1 2 cbr 1000 ------- 2 1.0 2.0 102 102
- 0.136 1 2 cbr 1000 ------- 2 1.0 2.0 102 102
r 0.136133 1 2 cbr 1000 ------- 2 1.0 2.0 94 94
+ 0.137333 1 2 cbr 1000 ------- 2 1.0 2.0 103 103
- 0.137333 1 2 cbr 1000 ------- 2 1.0 2.0 103 103
r 0.137467 1 2 cbr 1000 ------- 2 1.0 2.0 95 95
+ 0.138667 1 2 cbr 1000 ------- 2 1.0 2.0 104 104
- 0.138667 1 2 cbr 1000 ------- 2 1.0 2.0 104 104
r 0.1388 1 2 cbr 1000 ------- 2 1.0 2.0 96 96
+ 0.14 1 2 cbr 1000 ------- 2 1.0 2.0 105 105
- 0.14 1 2 cbr 1000 ------- 2 1.0 2.0 105 105
r 0.140133 1 2 cbr 1000 ------- 2 1.0 2.0 97 97
+ 0.141333 1 2 cbr 1000 ------- 2 1.0 2.0 106 106
- 0.141333 1 2 cbr 1000 ------- 2 1.0 2.0 106 106
r 0.141467 1 2 cbr 1000 ------- 2 1.0 2.0 98 98
+ 0.142667 1 2 cbr 1000 ------- 2 1.0 2.0 107 107
- 0.142667 1 2 cbr 1000 ------- 2 1.0 2.0 107 107
r 0.1428 1 2 cbr 1000 ------- 2 1.0 2.0 99 99
+ 0.144 1 2 cbr 1000 ------- 2 1.0 2.0 108 108
- 0.144 1 2 cbr 1000 ------- 2 1.0 2.0 108 108
r 0.144133 1 2 cbr 1000 ------- 2 1.0 2.0 100 100
+ 0.145333 1 2 cbr 1000 ------- 2 1.0 2.0 109 109
- 0.145333 1 2 cbr 1000 ------- 2 1.0 2.0 109 109
r 0.145467 1 2 cbr 1000 ------- 2 1.0 2.0 101 101
+ 0.146667 1 2 cbr 1000 ------- 2 1.0 2.0 110 110
- 0.146667 1 2 cbr 1000 ------- 2 1.0 2.0 110 110
r 0.1468 1 2 cbr 1000 ------- 2 1.0 2.0 102 102
+ 0.148 1 2 cbr 1000 ------- 2 1.0 2.0 111 111
- 0.148 1 2 cbr 1000 ------- 2 1.0 2.0 111 111
r 0.148133 1 2 cbr 1000 ------- 2 1.0 2.0 103 103
+ 0.149333 1 2 cbr 1000 ------- 2 1.0 2.0 112 112
- 0.149333 1 2 cbr 1000 ------- 2 1.0 2.0 112 112
r 0.149467 1 2 cbr 1000 ------- 2 1.0 2.0 104 104
+ 0.150667 1 2 cbr 1000 ------- 2 1.0 2.0 113 113
- 0.150667 1 2 cbr 1000 ------- 2 1.0 2.0 113 113
r 0.1508 1 2 cbr 1000 ------- 2 1.0 2.0 105 105
+ 0.152 1 2 cbr 1000 ------- 2 1.0 2.0 114 114
- 0.152 1 2 cbr 1000 ------- 2 1.0 2.0 114 114
r 0.152133 1 2 cbr 1000 ------- 2 1.0 2.0 106 106
+ 0.153333 1 2 cbr 1000 ------- 2 1.0 2.0 115 115
- 0.153333 1 2 cbr 1000 ------- 2 1.0 2.0 115 115
r 0.153467 1 2 cbr 1000 ------- 2 1.0 2.0 107 107
+ 0.154667 1 2 cbr 1000 ------- 2 1.0 2.0 116 116
- 0.154667 1 2 cbr 1000 ------- 2 1.0 2.0 116 116
r 0.1548 1 2 cbr 1000 ------- 2 1.0 2.0 108 108
+ 0.156 1 2 cbr 1000 ------- 2 1.0 2.0 117 117
- 0.156 1 2 cbr 1000 ------- 2 1.0 2.0 117 117
r 0.156133 1 2 cbr 1000 ------- 2 1.0 2.0 109 109
+ 0.157333 1 2 cbr 1000 ------- 2 1.0 2.0 118 118
- 0.157333 1 2 cbr 1000 ------- 2 1.0 2.0 118 118
r 0.157467 1 2 cbr 1000 ------- 2 1.0 2.0 110 110
+ 0.158667 1 2 cbr 1000 ------- 2 1.0 2.0 119 119
- 0.158667 1 2 cbr 1000 ------- 2 1.0 2.0 119 119
r 0.1588 1 2 cbr 1000 ------- 2 1.0 2.0 111 111
+ 0.16 1 2 cbr 1000 ------- 2 1.0 2.0 120 120
- 0.16 1 2 cbr 1000 ------- 2 1.0 2.0 120 120
r 0.160133 1 2 cbr 1000 ------- 2 1.0 2.0 112 112
+ 0.161333 1 2 cbr 1000 ------- 2 1.0 2.0 121 121
- 0.161333 1 2 cbr 1000 ------- 2 1.0 2.0 121 121
r 0.161467 1 2 cbr 1000 ------- 2 1.0 2.0 113 113
+ 0.162667 1 2 cbr 1000 ------- 2 1.0 2.0 122 122
- 0.162667 1 2 cbr 1000 ------- 2 1.0 2.0 122 122
r 0.1628 1 2 cbr 1000 ------- 2 1.0 2.0 114 114
+ 0.164 1 2 cbr 1000 ------- 2 1.0 2.0 123 123
- 0.164 1 2 cbr 1000 ------- 2 1.0 2.0 123 123
r 0.164133 1 2 cbr 1000 ------- 2 1.0 2.0 115 115
+ 0.165333 1 2 cbr 1000 ------- 2 1.0 2.0 124 124
- 0.165333 1 2 cbr 1000 ------- 2 1.0 2.0 124 124
r 0.165467 1 2 cbr 1000 ------- 2 1.0 2.0 116 116
+ 0.166667 1 2 cbr 1000 ------- 2 1.0 2.0 125 125
- 0.166667 1 2 cbr 1000 ------- 2 1.0 2.0 125 125
r 0.1668 1 2 cbr 1000 ------- 2 1.0 2.0 117 117
+ 0.168 1 2 cbr 1000 ------- 2 1.0 2.0 126 126
- 0.168 1 2 cbr 1000 ------- 2 1.0 2.0 126 126
r 0.168133 1 2 cbr 1000 ------- 2 1.0 2.0 118 118
+ 0.169333 1 2 cbr 1000 ------- 2 1.0 2.0 127 127
- 0.169333 1 2 cbr 1000 ------- 2 1.0 2.0 127 127
r 0.169467 1 2 cbr 1000 ------- 2 1.0 2.0 119 119
+ 0.170667 1 2 cbr 1000 ------- 2 1.0 2.0 128 128
- 0.170667 1 2 cbr 1000 ------- 2 1.0 2.0 128 128
r 0.1708 1 2 cbr 1000 ------- 2 1.0 2.0 120 120
+ 0.172 1 2 cbr 1000 ------- 2 1.0 2.0 129 129
- 0.172 1 2 cbr 1000 ------- 2 1.0 2.0 129 129
r 0.172133 1 2 cbr 1000 ------- 2 1.0 2.0 121 121
+ 0.173333 1 2 cbr 1000 ------- 2 1.0 2.0 130 130
- 0.173333 1 2 cbr 1000 ------- 2 1.0 2.0 130 130
r 0.173467 1 2 cbr 1000 ------- 2 1.0 2.0 122 122
+ 0.174667 1 2 cbr 1000 ------- 2 1.0 2.0 131 131
- 0.174667 1 2 cbr 1000 ------- 2 1.0 2.0 131 131
r 0.1748 1 2 cbr 1000 ------- 2 1.0 2.0 123 123
+ 0.176 1 2 cbr 1000 ------- 2 1.0 2.0 132 132
- 0.176 1 2 cbr 1000 ------- 2 1.0 2.0 132 132
r 0.176133 1 2 cbr 1000 ------- 2 1.0 2.0 124 124
+ 0.177333 1 2 cbr 1000 ------- 2 1.0 2.0 133 133
- 0.177333 1 2 cbr 1000 ------- 2 1.0 2.0 133 133
r 0.177467 1 2 cbr 1000 ------- 2 1.0 2.0 125 125
+ 0.178667 1 2 cbr 1000 ------- 2 1.0 2.0 134 134
- 0.178667 1 2 cbr 1000 ------- 2 1.0 2.0 134 134
r 0.1788 1 2 cbr 1000 ------- 2 1.0 2.0 126 126
+ 0.18 1 2 cbr 1000 ------- 2 1.0 2.0 135 135
- 0.18 1 2 cbr 1000 ------- 2 1.0 2.0 135 135
r 0.180133 1 2 cbr 1000 ------- 2 1.0 2.0 127 127
+ 0.181333 1 2 cbr 1000 ------- 2 1.0 2.0 136 136
- 0.181333 1 2 cbr 1000 ------- 2 1.0 2.0 136 136
r 0.181467 1 2 cbr 1000 ------- 2 1.0 2.0 128 128
+ 0.182667 1 2 cbr 1000 ------- 2 1.0 2.0 137 137
- 0.182667 1 2 cbr 1000 ------- 2 1.0 2.0 137 137
r 0.1828 1 2 cbr 1000 ------- 2 1.0 2.0 129 129
+ 0.184 1 2 cbr 1000 ------- 2 1.0 2.0 138 138
- 0.184 1 2 cbr 1000 ------- 2 1.0 2.0 138 138
r 0.184133 1 2 cbr 1000 ------- 2 1.0 2.0 130 130
+ 0.185333 1 2 cbr 1000 ------- 2 1.0 2.0 139 139
- 0.185333 1 2 cbr 1000 ------- 2 1.0 2.0 139 139
r 0.185467 1 2 cbr 1000 ------- 2 1.0 2.0 131 131
+ 0.186667 1 2 cbr 1000 ------- 2 1.0 2.0 140 140
- 0.186667 1 2 cbr 1000 ------- 2 1.0 2.0 140 140
r 0.1868 1 2 cbr 1000 ------- 2 1.0 2.0 132 132
+ 0.188 1 2 cbr 1000 ------- 2 1.0 2.0 141 141
- 0.188 1 2 cbr 1000 ------- 2 1.0 2.0 141 141
r 0.188133 1 2 cbr 1000 ------- 2 1.0 2.0 133 133
+ 0.189333 1 2 cbr 1000 ------- 2 1.0 2.0 142 142
- 0.189333 1 2 cbr 1000 ------- 2 1.0 2.0 142 142
r 0.189467 1 2 cbr 1000 ------- 2 1.0 2.0 134 134
+ 0.190667 1 2 cbr 1000 ------- 2 1.0 2.0 143 143
- 0.190667 1 2 cbr 1000 ------- 2 1.0 2.0 143 143
r 0.1908 1 2 cbr 1000 ------- 2 1.0 2.0 135 135
+ 0.192 1 2 cbr 1000 ------- 2 1.0 2.0 144 144
- 0.192 1 2 cbr 1000 ------- 2 1.0 2.0 144 144
r 0.192133 1 2 cbr 1000 ------- 2 1.0 2.0 136 136
+ 0.193333 1 2 cbr 1000 ------- 2 1.0 2.0 145 145
- 0.193333 1 2 cbr 1000 ------- 2 1.0 2.0 145 145
r 0.193467 1 2 cbr 1000 ------- 2 1.0 2.0 137 137
+ 0.194667 1 2 cbr 1000 ------- 2 1.0 2.0 146 146
- 0.194667 1 2 cbr 1000 ------- 2 1.0 2.0 146 146
r 0.1948 1 2 cbr 1000 ------- 2 1.0 2.0 138 138
+ 0.196 1 2 cbr 1000 ------- 2 1.0 2.0 147 147
- 0.196 1 2 cbr 1000 ------- 2 1.0 2.0 147 147
r 0.196133 1 2 cbr 1000 ------- 2 1.0 2.0 139 139
+ 0.197333 1 2 cbr 1000 ------- 2 1.0 2.0 148 148
- 0.197333 1 2 cbr 1000 ------- 2 1.0 2.0 148 148
r 0.197467 1 2 cbr 1000 ------- 2 1.0 2.0 140 140
+ 0.198667 1 2 cbr 1000 ------- 2 1.0 2.0 149 149
- 0.198667 1 2 cbr 1000 ------- 2 1.0 2.0 149 149
r 0.1988 1 2 cbr 1000 ------- 2 1.0 2.0 141 141
+ 0.2 1 2 cbr 1000 ------- 2 1.0 2.0 150 150
- 0.2 1 2 cbr 1000 ------- 2 1.0 2.0 150 150
r 0.200133 1 2 cbr 1000 ------- 2 1.0 2.0 142 142
+ 0.201333 1 2 cbr 1000 ------- 2 1.0 2.0 151 151
- 0.201333 1 2 cbr 1000 ------- 2 1.0 2.0 151 151
r 0.201467 1 2 cbr 1000 ------- 2 1.0 2.0 143 143
+ 0.202667 1 2 cbr 1000 ------- 2 1.0 2.0 152 152
- 0.202667 1 2 cbr 1000 ------- 2 1.0 2.0 152 152
r 0.2028 1 2 cbr 1000 ------- 2 1.0 2.0 144 144
+ 0.204 1 2 cbr 1000 ------- 2 1.0 2.0 153 153
- 0.204 1 2 cbr 1000 ------- 2 1.0 2.0 153 153
r 0.204133 1 2 cbr 1000 ------- 2 1.0 2.0 145 145
+ 0.205333 1 2 cbr 1000 ------- 2 1.0 2.0 154 154
- 0.205333 1 2 cbr 1000 ------- 2 1.0 2.0 154 154
r 0.205467 1 2 cbr 1000 ------- 2 1.0 2.0 146 146
+ 0.206667 1 2 cbr 1000 ------- 2 1.0 2.0 155 155
- 0.206667 1 2 cbr 1000 ------- 2 1.0 2.0 155 155
r 0.2068 1 2 cbr 1000 ------- 2 1.0 2.0 147 147
+ 0.208 1 2 cbr 1000 ------- 2 1.0 2.0 156 156
- 0.208 1 2 cbr 1000 ------- 2 1.0 2.0 156 156
r 0.208133 1 2 cbr 1000 ------- 2 1.0 2.0 148 148
+ 0.209333 1 2 cbr 1000 ------- 2 1.0 2.0 157 157
- 0.209333 1 2 cbr 1000 ------- 2 1.0 2.0 157 157
r 0.209467 1 2 cbr 1000 ------- 2 1.0 2.0 149 149
+ 0.210667 1 2 cbr 1000 ------- 2 1.0 2.0 158 158
- 0.210667 1 2 cbr 1000 ------- 2 1.0 2.0 158 158
r 0.2108 1 2 cbr 1000 ------- 2 1.0 2.0 150 150
+ 0.212 1 2 cbr 1000 ------- 2 1.0 2.0 159 159
- 0.212 1 2 cbr 1000 ------- 2 1.0 2.0 159 159
r 0.212133 1 2 cbr 1000 ------- 2 1.0 2.0 151 151
+ 0.213333 1 2 cbr 1000 ------- 2 1.0 2.0 160 160
- 0.213333 1 2 cbr 1000 ------- 2 1.0 2.0 160 160
r 0.213467 1 2 cbr 1000 ------- 2 1.0 2.0 152 152
+ 0.214667 1 2 cbr 1000 ------- 2 1.0 2.0 161 161
- 0.214667 1 2 cbr 1000 ------- 2 1.0 2.0 161 161
r 0.2148 1 2 cbr 1000 ------- 2 1.0 2.0 153 153
+ 0.216 1 2 cbr 1000 ------- 2 1.0 2.0 162 162
- 0.216 1 2 cbr 1000 ------- 2 1.0 2.0 162 162
r 0.216133 1 2 cbr 1000 ------- 2 1.0 2.0 154 154
+ 0.217333 1 2 cbr 1000 ------- 2 1.0 2.0 163 163
- 0.217333 1 2 cbr 1000 ------- 2 1.0 2.0 163 163
r 0.217467 1 2 cbr 1000 ------- 2 1.0 2.0 155 155
+ 0.218667 1 2 cbr 1000 ------- 2 1.0 2.0 164 164
- 0.218667 1 2 cbr 1000 ------- 2 1.0 2.0 164 164
r 0.2188 1 2 cbr 1000 ------- 2 1.0 2.0 156 156
+ 0.22 1 2 cbr 1000 ------- 2 1.0 2.0 165 165
- 0.22 1 2 cbr 1000 ------- 2 1.0 2.0 165 165
r 0.220133 1 2 cbr 1000 ------- 2 1.0 2.0 157 157
+ 0.221333 1 2 cbr 1000 ------- 2 1.0 2.0 166 166
- 0.221333 1 2 cbr 1000 ------- 2 1.0 2.0 166 166
r 0.221467 1 2 cbr 1000 ------- 2 1.0 2.0 158 158
+ 0.222667 1 2 cbr 1000 ------- 2 1.0 2.0 167 167
- 0.222667 1 2 cbr 1000 ------- 2 1.0 2.0 167 167
r 0.2228 1 2 cbr 1000 ------- 2 1.0 2.0 159 159
+ 0.224 1 2 cbr 1000 ------- 2 1.0 2.0 168 168
- 0.224 1 2 cbr 1000 ------- 2 1.0 2.0 168 168
r 0.224133 1 2 cbr 1000 ------- 2 1.0 2.0 160 160
+ 0.225333 1 2 cbr 1000 ------- 2 1.0 2.0 169 169
- 0.225333 1 2 cbr 1000 ------- 2 1.0 2.0 169 169
r 0.225467 1 2 cbr 1000 ------- 2 1.0 2.0 161 161
+ 0.226667 1 2 cbr 1000 ------- 2 1.0 2.0 170 170
- 0.226667 1 2 cbr 1000 ------- 2 1.0 2.0 170 170
r 0.2268 1 2 cbr 1000 ------- 2 1.0 2.0 162 162
+ 0.228 1 2 cbr 1000 ------- 2 1.0 2.0 171 171
- 0.228 1 2 cbr 1000 ------- 2 1.0 2.0 171 171
r 0.228133 1 2 cbr 1000 ------- 2 1.0 2.0 163 163
+ 0.229333 1 2 cbr 1000 ------- 2 1.0 2.0 172 172
- 0.229333 1 2 cbr 1000 ------- 2 1.0 2.0 172 172
r 0.229467 1 2 cbr 1000 ------- 2 1.0 2.0 164 164
+ 0.230667 1 2 cbr 1000 ------- 2 1.0 2.0 173 173
- 0.230667 1 2 cbr 1000 ------- 2 1.0 2.0 173 173
r 0.2308 1 2 cbr 1000 ------- 2 1.0 2.0 165 165
+ 0.232 1 2 cbr 1000 ------- 2 1.0 2.0 174 174
- 0.232 1 2 cbr 1000 ------- 2 1.0 2.0 174 174
r 0.232133 1 2 cbr 1000 ------- 2 1.0 2.0 166 166
+ 0.233333 1 2 cbr 1000 ------- 2 1.0 2.0 175 175
- 0.233333 1 2 cbr 1000 ------- 2 1.0 2.0 175 175
r 0.233467 1 2 cbr 1000 ------- 2 1.0 2.0 167 167
+ 0.234667 1 2 cbr 1000 ------- 2 1.0 2.0 176 176
- 0.234667 1 2 cbr 1000 ------- 2 1.0 2.0 176 176
r 0.2348 1 2 cbr 1000 ------- 2 1.0 2.0 168 168
+ 0.236 1 2 cbr 1000 ------- 2 1.0 2.0 177 177
- 0.236 1 2 cbr 1000 ------- 2 1.0 2.0 177 177
r 0.236133 1 2 cbr 1000 ------- 2 1.0 2.0 169 169
+ 0.237333 1 2 cbr 1000 ------- 2 1.0 2.0 178 178
- 0.237333 1 2 cbr 1000 ------- 2 1.0 2.0 178 178
r 0.237467 1 2 cbr 1000 ------- 2 1.0 2.0 170 170
+ 0.238667 1 2 cbr 1000 ------- 2 1.0 2.0 179 179
- 0.238667 1 2 cbr 1000 ------- 2 1.0 2.0 179 179
r 0.2388 1 2 cbr 1000 ------- 2 1.0 2.0 171 171
+ 0.24 1 2 cbr 1000 ------- 2 1.0 2.0 180 180
- 0.24 1 2 cbr 1000 ------- 2 1.0 2.0 180 180
r 0.240133 1 2 cbr 1000 ------- 2 1.0 2.0 172 172
+ 0.241333 1 2 cbr 1000 ------- 2 1.0 2.0 181 181
- 0.241333 1 2 cbr 1000 ------- 2 1.0 2.0 181 181
r 0.241467 1 2 cbr 1000 ------- 2 1.0 2.0 173 173
+ 0.242667 1 2 cbr 1000 ------- 2 1.0 2.0 182 182
- 0.242667 1 2 cbr 1000 ------- 2 1.0 2.0 182 182
r 0.2428 1 2 cbr 1000 ------- 2 1.0 2.0 174 174
+ 0.244 1 2 cbr 1000 ------- 2 1.0 2.0 183 183
- 0.244 1 2 cbr 1000 ------- 2 1.0 2.0 183 183
r 0.244133 1 2 cbr 1000 ------- 2 1.0 2.0 175 175
+ 0.245333 1 2 cbr 1000 ------- 2 1.0 2.0 184 184
- 0.245333 1 2 cbr 1000 ------- 2 1.0 2.0 184 184
r 0.245467 1 2 cbr 1000 ------- 2 1.0 2.0 176 176
+ 0.246667 1 2 cbr 1000 ------- 2 1.0 2.0 185 185
- 0.246667 1 2 cbr 1000 ------- 2 1.0 2.0 185 185
r 0.2468 1 2 cbr 1000 ------- 2 1.0 2.0 177 177
+ 0.248 1 2 cbr 1000 ------- 2 1.0 2.0 186 186
- 0.248 1 2 cbr 1000 ------- 2 1.0 2.0 186 186
r 0.248133 1 2 cbr 1000 ------- 2 1.0 2.0 178 178
+ 0.249333 1 2 cbr 1000 ------- 2 1.0 2.0 187 187
- 0.249333 1 2 cbr 1000 ------- 2 1.0 2.0 187 187
r 0.249467 1 2 cbr 1000 ------- 2 1.0 2.0 179 179
+ 0.250667 1 2 cbr 1000 ------- 2 1.0 2.0 188 188
- 0.250667 1 2 cbr 1000 ------- 2 1.0 2.0 188 188
r 0.2508 1 2 cbr 1000 ------- 2 1.0 2.0 180 180
+ 0.252 1 2 cbr 1000 ------- 2 1.0 2.0 189 189
- 0.252 1 2 cbr 1000 ------- 2 1.0 2.0 189 189
r 0.252133 1 2 cbr 1000 ------- 2 1.0 2.0 181 181
+ 0.253333 1 2 cbr 1000 ------- 2 1.0 2.0 190 190
- 0.253333 1 2 cbr 1000 ------- 2 1.0 2.0 190 190
r 0.253467 1 2 cbr 1000 ------- 2 1.0 2.0 182 182
+ 0.254667 1 2 cbr 1000 ------- 2 1.0 2.0 191 191
- 0.254667 1 2 cbr 1000 ------- 2 1.0 2.0 191 191
r 0.2548 1 2 cbr 1000 ------- 2 1.0 2.0 183 183
+ 0.256 1 2 cbr 1000 ------- 2 1.0 2.0 192 192
- 0.256 1 2 cbr 1000 ------- 2 1.0 2.0 192 192
r 0.256133 1 2 cbr 1000 ------- 2 1.0 2.0 184 184
+ 0.257333 1 2 cbr 1000 ------- 2 1.0 2.0 193 193
- 0.257333 1 2 cbr 1000 ------- 2 1.0 2.0 193 193
r 0.257467 1 2 cbr 1000 ------- 2 1.0 2.0 185 185
+ 0.258667 1 2 cbr 1000 ------- 2 1.0 2.0 194 194
- 0.258667 1 2 cbr 1000 ------- 2 1.0 2.0 194 194
r 0.2588 1 2 cbr 1000 ------- 2 1.0 2.0 186 186
+ 0.26 1 2 cbr 1000 ------- 2 1.0 2.0 195 195
- 0.26 1 2 cbr 1000 ------- 2 1.0 2.0 195 195
r 0.260133 1 2 cbr 1000 ------- 2 1.0 2.0 187 187
+ 0.261333 1 2 cbr 1000 ------- 2 1.0 2.0 196 196
- 0.261333 1 2 cbr 1000 ------- 2 1.0 2.0 196 196
r 0.261467 1 2 cbr 1000 ------- 2 1.0 2.0 188 188
+ 0.262667 1 2 cbr 1000 ------- 2 1.0 2.0 197 197
- 0.262667 1 2 cbr 1000 ------- 2 1.0 2.0 197 197
r 0.2628 1 2 cbr 1000 ------- 2 1.0 2.0 189 189
+ 0.264 1 2 cbr 1000 ------- 2 1.0 2.0 198 198
- 0.264 1 2 cbr 1000 ------- 2 1.0 2.0 198 198
r 0.264133 1 2 cbr 1000 ------- 2 1.0 2.0 190 190
+ 0.265333 1 2 cbr 1000 ------- 2 1.0 2.0 199 199
- 0.265333 1 2 cbr 1000 ------- 2 1.0 2.0 199 199
r 0.265467 1 2 cbr 1000 ------- 2 1.0 2.0 191 191
+ 0.266667 1 2 cbr 1000 ------- 2 1.0 2.0 200 200
- 0.266667 1 2 cbr 1000 ------- 2 1.0 2.0 200 200
r 0.2668 1 2 cbr 1000 ------- 2 1.0 2.0 192 192
+ 0.268 1 2 cbr 1000 ------- 2 1.0 2.0 201 201
- 0.268 1 2 cbr 1000 ------- 2 1.0 2.0 201 201
r 0.268133 1 2 cbr 1000 ------- 2 1.0 2.0 193 193
+ 0.269333 1 2 cbr 1000 ------- 2 1.0 2.0 202 202
- 0.269333 1 2 cbr 1000 ------- 2 1.0 2.0 202 202
r 0.269467 1 2 cbr 1000 ------- 2 1.0 2.0 194 194
+ 0.270667 1 2 cbr 1000 ------- 2 1.0 2.0 203 203
- 0.270667 1 2 cbr 1000 ------- 2 1.0 2.0 203 203
r 0.2708 1 2 cbr 1000 ------- 2 1.0 2.0 195 195
+ 0.272 1 2 cbr 1000 ------- 2 1.0 2.0 204 204
- 0.272 1 2 cbr 1000 ------- 2 1.0 2.0 204 204
r 0.272133 1 2 cbr 1000 ------- 2 1.0 2.0 196 196
+ 0.273333 1 2 cbr 1000 ------- 2 1.0 2.0 205 205
- 0.273333 1 2 cbr 1000 ------- 2 1.0 2.0 205 205
r 0.273467 1 2 cbr 1000 ------- 2 1.0 2.0 197 197
+ 0.274667 1 2 cbr 1000 ------- 2 1.0 2.0 206 206
- 0.274667 1 2 cbr 1000 ------- 2 1.0 2.0 206 206
r 0.2748 1 2 cbr 1000 ------- 2 1.0 2.0 198 198
+ 0.276 1 2 cbr 1000 ------- 2 1.0 2.0 207 207
- 0.276 1 2 cbr 1000 ------- 2 1.0 2.0 207 207
r 0.276133 1 2 cbr 1000 ------- 2 1.0 2.0 199 199
+ 0.277333 1 2 cbr 1000 ------- 2 1.0 2.0 208 208
- 0.277333 1 2 cbr 1000 ------- 2 1.0 2.0 208 208
r 0.277467 1 2 cbr 1000 ------- 2 1.0 2.0 200 200
+ 0.278667 1 2 cbr 1000 ------- 2 1.0 2.0 209 209
- 0.278667 1 2 cbr 1000 ------- 2 1.0 2.0 209 209
r 0.2788 1 2 cbr 1000 ------- 2 1.0 2.0 201 201
+ 0.28 1 2 cbr 1000 ------- 2 1.0 2.0 210 210
- 0.28 1 2 cbr 1000 ------- 2 1.0 2.0 210 210
r 0.280133 1 2 cbr 1000 ------- 2 1.0 2.0 202 202