+ 0 1 2 cbr 1000 ------- 2 1.0 2.0 0 0
- 0 1 2 cbr 1000 ------- 2 1.0 2.0 0 0
+ 0.008 1 2 cbr 1000 ------- 2 1.0 2.0 1 1
- 0.008 1 2 cbr 1000 ------- 2 1.0 2.0 1 1
r 0.0108 1 2 cbr 1000 ------- 2 1.0 2.0 0 0
+ 0.016 1 2 cbr 1000 ------- 2 1.0 2.0 2 2
- 0.016 1 2 cbr 1000 ------- 2 1.0 2.0 2 2
r 0.0188 1 2 cbr 1000 ------- 2 1.0 2.0 1 1
+ 0.024 1 2 cbr 1000 ------- 2 1.0 2.0 3 3
- 0.024 1 2 cbr 1000 ------- 2 1.0 2.0 3 3
r 0.0268 1 2 cbr 1000 ------- 2 1.0 2.0 2 2
+ 0.032 1 2 cbr 1000 ------- 2 1.0 2.0 4 4
- 0.032 1 2 cbr 1000 ------- 2 1.0 2.0 4 4
r 0.0348 1 2 cbr 1000 ------- 2 1.0 2.0 3 3
+ 0.04 1 2 cbr 1000 ------- 2 1.0 2.0 5 5
- 0.04 1 2 cbr 1000 ------- 2 1.0 2.0 5 5
r 0.0428 1 2 cbr 1000 ------- 2 1.0 2.0 4 4
+ 0.048 1 2 cbr 1000 ------- 2 1.0 2.0 6 6
- 0.048 1 2 cbr 1000 ------- 2 1.0 2.0 6 6
r 0.0508 1 2 cbr 1000 ------- 2 1.0 2.0 5 5
+ 0.056 1 2 cbr 1000 ------- 2 1.0 2.0 7 7
- 0.056 1 2 cbr 1000 ------- 2 1.0 2.0 7 7
r 0.0588 1 2 cbr 1000 ------- 2 1.0 2.0 6 6
+ 0.064 1 2 cbr 1000 ------- 2 1.0 2.0 8 8
- 0.064 1 2 cbr 1000 ------- 2 1.0 2.0 8 8
r 0.0668 1 2 cbr 1000 ------- 2 1.0 2.0 7 7
+ 0.072 1 2 cbr 1000 ------- 2 1.0 2.0 9 9
- 0.072 1 2 cbr 1000 ------- 2 1.0 2.0 9 9
r 0.0748 1 2 cbr 1000 ------- 2 1.0 2.0 8 8
+ 0.08 1 2 cbr 1000 ------- 2 1.0 2.0 10 10
- 0.08 1 2 cbr 1000 ------- 2 1.0 2.0 10 10
r 0.0828 1 2 cbr 1000 ------- 2 1.0 2.0 9 9
+ 0.088 1 2 cbr 1000 ------- 2 1.0 2.0 11 11
- 0.088 1 2 cbr 1000 ------- 2 1.0 2.0 11 11
r 0.0908 1 2 cbr 1000 ------- 2 1.0 2.0 10 10
+ 0.096 1 2 cbr 1000 ------- 2 1.0 2.0 12 12
- 0.096 1 2 cbr 1000 ------- 2 1.0 2.0 12 12
r 0.0988 1 2 cbr 1000 ------- 2 1.0 2.0 11 11
+ 0.104 1 2 cbr 1000 ------- 2 1.0 2.0 13 13
- 0.104 1 2 cbr 1000 ------- 2 1.0 2.0 13 13
r 0.1068 1 2 cbr 1000 ------- 2 1.0 2.0 12 12
+ 0.112 1 2 cbr 1000 ------- 2 1.0 2.0 14 14
- 0.112 1 2 cbr 1000 ------- 2 1.0 2.0 14 14
r 0.1148 1 2 cbr 1000 ------- 2 1.0 2.0 13 13
+ 0.12 1 2 cbr 1000 ------- 2 1.0 2.0 15 15
- 0.12 1 2 cbr 1000 ------- 2 1.0 2.0 15 15
r 0.1228 1 2 cbr 1000 ------- 2 1.0 2.0 14 14
+ 0.128 1 2 cbr 1000 ------- 2 1.0 2.0 16 16
- 0.128 1 2 cbr 1000 ------- 2 1.0 2.0 16 16
r 0.1308 1 2 cbr 1000 ------- 2 1.0 2.0 15 15
+ 0.136 1 2 cbr 1000 ------- 2 1.0 2.0 17 17
- 0.136 1 2 cbr 1000 ------- 2 1.0 2.0 17 17
r 0.1388 1 2 cbr 1000 ------- 2 1.0 2.0 16 16
+ 0.144 1 2 cbr 1000 ------- 2 1.0 2.0 18 18
- 0.144 1 2 cbr 1000 ------- 2 1.0 2.0 18 18
r 0.1468 1 2 cbr 1000 ------- 2 1.0 2.0 17 17
+ 0.152 1 2 cbr 1000 ------- 2 1.0 2.0 19 19
- 0.152 1 2 cbr 1000 ------- 2 1.0 2.0 19 19
r 0.1548 1 2 cbr 1000 ------- 2 1.0 2.0 18 18
+ 0.16 1 2 cbr 1000 ------- 2 1.0 2.0 20 20
- 0.16 1 2 cbr 1000 ------- 2 1.0 2.0 20 20
r 0.1628 1 2 cbr 1000 ------- 2 1.0 2.0 19 19
+ 0.168 1 2 cbr 1000 ------- 2 1.0 2.0 21 21
- 0.168 1 2 cbr 1000 ------- 2 1.0 2.0 21 21
r 0.1708 1 2 cbr 1000 ------- 2 1.0 2.0 20 20
+ 0.176 1 2 cbr 1000 ------- 2 1.0 2.0 22 22
- 0.176 1 2 cbr 1000 ------- 2 1.0 2.0 22 22
r 0.1788 1 2 cbr 1000 ------- 2 1.0 2.0 21 21
+ 0.184 1 2 cbr 1000 ------- 2 1.0 2.0 23 23
- 0.184 1 2 cbr 1000 ------- 2 1.0 2.0 23 23
r 0.1868 1 2 cbr 1000 ------- 2 1.0 2.0 22 22
+ 0.192 1 2 cbr 1000 ------- 2 1.0 2.0 24 24
- 0.192 1 2 cbr 1000 ------- 2 1.0 2.0 24 24
r 0.1948 1 2 cbr 1000 ------- 2 1.0 2.0 23 23
+ 0.2 1 2 cbr 1000 ------- 2 1.0 2.0 25 25
- 0.2 1 2 cbr 1000 ------- 2 1.0 2.0 25 25
r 0.2028 1 2 cbr 1000 ------- 2 1.0 2.0 24 24
+ 0.208 1 2 cbr 1000 ------- 2 1.0 2.0 26 26
- 0.208 1 2 cbr 1000 ------- 2 1.0 2.0 26 26
r 0.2108 1 2 cbr 1000 ------- 2 1.0 2.0 25 25
+ 0.216 1 2 cbr 1000 ------- 2 1.0 2.0 27 27
- 0.216 1 2 cbr 1000 ------- 2 1.0 2.0 27 27
r 0.2188 1 2 cbr 1000 ------- 2 1.0 2.0 26 26
+ 0.224 1 2 cbr 1000 ------- 2 1.0 2.0 28 28
- 0.224 1 2 cbr 1000 ------- 2 1.0 2.0 28 28
r 0.2268 1 2 cbr 1000 ------- 2 1.0 2.0 27 27
+ 0.232 1 2 cbr 1000 ------- 2 1.0 2.0 29 29
- 0.232 1 2 cbr 1000 ------- 2 1.0 2.0 29 29
r 0.2348 1 2 cbr 1000 ------- 2 1.0 2.0 28 28
+ 0.24 1 2 cbr 1000 ------- 2 1.0 2.0 30 30
- 0.24 1 2 cbr 1000 ------- 2 1.0 2.0 30 30
r 0.2428 1 2 cbr 1000 ------- 2 1.0 2.0 29 29
+ 0.248 1 2 cbr 1000 ------- 2 1.0 2.0 31 31
- 0.248 1 2 cbr 1000 ------- 2 1.0 2.0 31 31
r 0.2508 1 2 cbr 1000 ------- 2 1.0 2.0 30 30
+ 0.256 1 2 cbr 1000 ------- 2 1.0 2.0 32 32
- 0.256 1 2 cbr 1000 ------- 2 1.0 2.0 32 32
r 0.2588 1 2 cbr 1000 ------- 2 1.0 2.0 31 31
+ 0.264 1 2 cbr 1000 ------- 2 1.0 2.0 33 33
- 0.264 1 2 cbr 1000 ------- 2 1.0 2.0 33 33
r 0.2668 1 2 cbr 1000 ------- 2 1.0 2.0 32 32
+ 0.272 1 2 cbr 1000 ------- 2 1.0 2.0 34 34
- 0.272 1 2 cbr 1000 ------- 2 1.0 2.0 34 34
r 0.2748 1 2 cbr 1000 ------- 2 1.0 2.0 33 33
+ 0.28 1 2 cbr 1000 ------- 2 1.0 2.0 35 35
- 0.28 1 2 cbr 1000 ------- 2 1.0 2.0 35 35
r 0.2828 1 2 cbr 1000 ------- 2 1.0 2.0 34 34
+ 0.288 1 2 cbr 1000 ------- 2 1.0 2.0 36 36
- 0.288 1 2 cbr 1000 ------- 2 1.0 2.0 36 36
r 0.2908 1 2 cbr 1000 ------- 2 1.0 2.0 35 35
+ 0.296 1 2 cbr 1000 ------- 2 1.0 2.0 37 37
- 0.296 1 2 cbr 1000 ------- 2 1.0 2.0 37 37
r 0.2988 1 2 cbr 1000 ------- 2 1.0 2.0 36 36
+ 0.304 1 2 cbr 1000 ------- 2 1.0 2.0 38 38
- 0.304 1 2 cbr 1000 ------- 2 1.0 2.0 38 38
r 0.3068 1 2 cbr 1000 ------- 2 1.0 2.0 37 37
+ 0.312 1 2 cbr 1000 ------- 2 1.0 2.0 39 39
- 0.312 1 2 cbr 1000 ------- 2 1.0 2.0 39 39
r 0.3148 1 2 cbr 1000 ------- 2 1.0 2.0 38 38
+ 0.32 1 2 cbr 1000 ------- 2 1.0 2.0 40 40
- 0.32 1 2 cbr 1000 ------- 2 1.0 2.0 40 40
r 0.3228 1 2 cbr 1000 ------- 2 1.0 2.0 39 39
+ 0.328 1 2 cbr 1000 ------- 2 1.0 2.0 41 41
- 0.328 1 2 cbr 1000 ------- 2 1.0 2.0 41 41
r 0.3308 1 2 cbr 1000 ------- 2 1.0 2.0 40 40
+ 0.336 1 2 cbr 1000 ------- 2 1.0 2.0 42 42
- 0.336 1 2 cbr 1000 ------- 2 1.0 2.0 42 42
r 0.3388 1 2 cbr 1000 ------- 2 1.0 2.0 41 41
+ 0.344 1 2 cbr 1000 ------- 2 1.0 2.0 43 43
- 0.344 1 2 cbr 1000 ------- 2 1.0 2.0 43 43
r 0.3468 1 2 cbr 1000 ------- 2 1.0 2.0 42 42
+ 0.352 1 2 cbr 1000 ------- 2 1.0 2.0 44 44
- 0.352 1 2 cbr 1000 ------- 2 1.0 2.0 44 44
r 0.3548 1 2 cbr 1000 ------- 2 1.0 2.0 43 43
+ 0.36 1 2 cbr 1000 ------- 2 1.0 2.0 45 45
- 0.36 1 2 cbr 1000 ------- 2 1.0 2.0 45 45
r 0.3628 1 2 cbr 1000 ------- 2 1.0 2.0 44 44
+ 0.368 1 2 cbr 1000 ------- 2 1.0 2.0 46 46
- 0.368 1 2 cbr 1000 ------- 2 1.0 2.0 46 46
r 0.3708 1 2 cbr 1000 ------- 2 1.0 2.0 45 45
+ 0.376 1 2 cbr 1000 ------- 2 1.0 2.0 47 47
- 0.376 1 2 cbr 1000 ------- 2 1.0 2.0 47 47
r 0.3788 1 2 cbr 1000 ------- 2 1.0 2.0 46 46
+ 0.384 1 2 cbr 1000 ------- 2 1.0 2.0 48 48
- 0.384 1 2 cbr 1000 ------- 2 1.0 2.0 48 48
r 0.3868 1 2 cbr 1000 ------- 2 1.0 2.0 47 47
+ 0.392 1 2 cbr 1000 ------- 2 1.0 2.0 49 49
- 0.392 1 2 cbr 1000 ------- 2 1.0 2.0 49 49
r 0.3948 1 2 cbr 1000 ------- 2 1.0 2.0 48 48
+ 0.4 1 2 cbr 1000 ------- 2 1.0 2.0 50 50
- 0.4 1 2 cbr 1000 ------- 2 1.0 2.0 50 50
r 0.4028 1 2 cbr 1000 ------- 2 1.0 2.0 49 49
+ 0.408 1 2 cbr 1000 ------- 2 1.0 2.0 51 51
- 0.408 1 2 cbr 1000 ------- 2 1.0 2.0 51 51
r 0.4108 1 2 cbr 1000 ------- 2 1.0 2.0 50 50
+ 0.416 1 2 cbr 1000 ------- 2 1.0 2.0 52 52
- 0.416 1 2 cbr 1000 ------- 2 1.0 2.0 52 52
r 0.4188 1 2 cbr 1000 ------- 2 1.0 2.0 51 51
+ 0.424 1 2 cbr 1000 ------- 2 1.0 2.0 53 53
- 0.424 1 2 cbr 1000 ------- 2 1.0 2.0 53 53
r 0.4268 1 2 cbr 1000 ------- 2 1.0 2.0 52 52
+ 0.432 1 2 cbr 1000 ------- 2 1.0 2.0 54 54
- 0.432 1 2 cbr 1000 ------- 2 1.0 2.0 54 54
r 0.4348 1 2 cbr 1000 ------- 2 1.0 2.0 53 53
+ 0.44 1 2 cbr 1000 ------- 2 1.0 2.0 55 55
- 0.44 1 2 cbr 1000 ------- 2 1.0 2.0 55 55
r 0.4428 1 2 cbr 1000 ------- 2 1.0 2.0 54 54
+ 0.448 1 2 cbr 1000 ------- 2 1.0 2.0 56 56
- 0.448 1 2 cbr 1000 ------- 2 1.0 2.0 56 56
r 0.4508 1 2 cbr 1000 ------- 2 1.0 2.0 55 55
+ 0.456 1 2 cbr 1000 ------- 2 1.0 2.0 57 57
- 0.456 1 2 cbr 1000 ------- 2 1.0 2.0 57 57
r 0.4588 1 2 cbr 1000 ------- 2 1.0 2.0 56 56
+ 0.464 1 2 cbr 1000 ------- 2 1.0 2.0 58 58
- 0.464 1 2 cbr 1000 ------- 2 1.0 2.0 58 58
r 0.4668 1 2 cbr 1000 ------- 2 1.0 2.0 57 57
+ 0.472 1 2 cbr 1000 ------- 2 1.0 2.0 59 59
- 0.472 1 2 cbr 1000 ------- 2 1.0 2.0 59 59
r 0.4748 1 2 cbr 1000 ------- 2 1.0 2.0 58 58
+ 0.48 1 2 cbr 1000 ------- 2 1.0 2.0 60 60
- 0.48 1 2 cbr 1000 ------- 2 1.0 2.0 60 60
r 0.4828 1 2 cbr 1000 ------- 2 1.0 2.0 59 59
+ 0.488 1 2 cbr 1000 ------- 2 1.0 2.0 61 61
- 0.488 1 2 cbr 1000 ------- 2 1.0 2.0 61 61
r 0.4908 1 2 cbr 1000 ------- 2 1.0 2.0 60 60
+ 0.496 1 2 cbr 1000 ------- 2 1.0 2.0 62 62
- 0.496 1 2 cbr 1000 ------- 2 1.0 2.0 62 62
r 0.4988 1 2 cbr 1000 ------- 2 1.0 2.0 61 61
+ 0.504 1 2 cbr 1000 ------- 2 1.0 2.0 63 63
- 0.504 1 2 cbr 1000 ------- 2 1.0 2.0 63 63
r 0.5068 1 2 cbr 1000 ------- 2 1.0 2.0 62 62
+ 0.512 1 2 cbr 1000 ------- 2 1.0 2.0 64 64
- 0.512 1 2 cbr 1000 ------- 2 1.0 2.0 64 64
r 0.5148 1 2 cbr 1000 ------- 2 1.0 2.0 63 63
+ 0.52 1 2 cbr 1000 ------- 2 1.0 2.0 65 65
- 0.52 1 2 cbr 1000 ------- 2 1.0 2.0 65 65
r 0.5228 1 2 cbr 1000 ------- 2 1.0 2.0 64 64
+ 0.528 1 2 cbr 1000 ------- 2 1.0 2.0 66 66
- 0.528 1 2 cbr 1000 ------- 2 1.0 2.0 66 66
r 0.5308 1 2 cbr 1000 ------- 2 1.0 2.0 65 65
+ 0.536 1 2 cbr 1000 ------- 2 1.0 2.0 67 67
- 0.536 1 2 cbr 1000 ------- 2 1.0 2.0 67 67
r 0.5388 1 2 cbr 1000 ------- 2 1.0 2.0 66 66
+ 0.544 1 2 cbr 1000 ------- 2 1.0 2.0 68 68
- 0.544 1 2 cbr 1000 ------- 2 1.0 2.0 68 68
r 0.5468 1 2 cbr 1000 ------- 2 1.0 2.0 67 67
+ 0.552 1 2 cbr 1000 ------- 2 1.0 2.0 69 69
- 0.552 1 2 cbr 1000 ------- 2 1.0 2.0 69 69
r 0.5548 1 2 cbr 1000 ------- 2 1.0 2.0 68 68
+ 0.56 1 2 cbr 1000 ------- 2 1.0 2.0 70 70
- 0.56 1 2 cbr 1000 ------- 2 1.0 2.0 70 70
r 0.5628 1 2 cbr 1000 ------- 2 1.0 2.0 69 69
+ 0.568 1 2 cbr 1000 ------- 2 1.0 2.0 71 71
- 0.568 1 2 cbr 1000 ------- 2 1.0 2.0 71 71
r 0.5708 1 2 cbr 1000 ------- 2 1.0 2.0 70 70
+ 0.576 1 2 cbr 1000 ------- 2 1.0 2.0 72 72
- 0.576 1 2 cbr 1000 ------- 2 1.0 2.0 72 72
r 0.5788 1 2 cbr 1000 ------- 2 1.0 2.0 71 71
+ 0.584 1 2 cbr 1000 ------- 2 1.0 2.0 73 73
- 0.584 1 2 cbr 1000 ------- 2 1.0 2.0 73 73
r 0.5868 1 2 cbr 1000 ------- 2 1.0 2.0 72 72
+ 0.592 1 2 cbr 1000 ------- 2 1.0 2.0 74 74
- 0.592 1 2 cbr 1000 ------- 2 1.0 2.0 74 74
r 0.5948 1 2 cbr 1000 ------- 2 1.0 2.0 73 73
+ 0.6 1 2 cbr 1000 ------- 2 1.0 2.0 75 75
- 0.6 1 2 cbr 1000 ------- 2 1.0 2.0 75 75
r 0.6028 1 2 cbr 1000 ------- 2 1.0 2.0 74 74
+ 0.608 1 2 cbr 1000 ------- 2 1.0 2.0 76 76
- 0.608 1 2 cbr 1000 ------- 2 1.0 2.0 76 76
r 0.6108 1 2 cbr 1000 ------- 2 1.0 2.0 75 75
+ 0.616 1 2 cbr 1000 ------- 2 1.0 2.0 77 77
- 0.616 1 2 cbr 1000 ------- 2 1.0 2.0 77 77
r 0.6188 1 2 cbr 1000 ------- 2 1.0 2.0 76 76
+ 0.624 1 2 cbr 1000 ------- 2 1.0 2.0 78 78
- 0.624 1 2 cbr 1000 ------- 2 1.0 2.0 78 78
r 0.6268 1 2 cbr 1000 ------- 2 1.0 2.0 77 77
+ 0.632 1 2 cbr 1000 ------- 2 1.0 2.0 79 79
- 0.632 1 2 cbr 1000 ------- 2 1.0 2.0 79 79
r 0.6348 1 2 cbr 1000 ------- 2 1.0 2.0 78 78
+ 0.64 1 2 cbr 1000 ------- 2 1.0 2.0 80 80
- 0.64 1 2 cbr 1000 ------- 2 1.0 2.0 80 80
r 0.6428 1 2 cbr 1000 ------- 2 1.0 2.0 79 79
+ 0.648 1 2 cbr 1000 ------- 2 1.0 2.0 81 81
- 0.648 1 2 cbr 1000 ------- 2 1.0 2.0 81 81
r 0.6508 1 2 cbr 1000 ------- 2 1.0 2.0 80 80
+ 0.656 1 2 cbr 1000 ------- 2 1.0 2.0 82 82
- 0.656 1 2 cbr 1000 ------- 2 1.0 2.0 82 82
r 0.6588 1 2 cbr 1000 ------- 2 1.0 2.0 81 81
+ 0.664 1 2 cbr 1000 ------- 2 1.0 2.0 83 83
- 0.664 1 2 cbr 1000 ------- 2 1.0 2.0 83 83
r 0.6668 1 2 cbr 1000 ------- 2 1.0 2.0 82 82
+ 0.672 1 2 cbr 1000 ------- 2 1.0 2.0 84 84
- 0.672 1 2 cbr 1000 ------- 2 1.0 2.0 84 84
r 0.6748 1 2 cbr 1000 ------- 2 1.0 2.0 83 83
+ 0.68 1 2 cbr 1000 ------- 2 1.0 2.0 85 85
- 0.68 1 2 cbr 1000 ------- 2 1.0 2.0 85 85
r 0.6828 1 2 cbr 1000 ------- 2 1.0 2.0 84 84
+ 0.688 1 2 cbr 1000 ------- 2 1.0 2.0 86 86
- 0.688 1 2 cbr 1000 ------- 2 1.0 2.0 86 86
r 0.6908 1 2 cbr 1000 ------- 2 1.0 2.0 85 85
+ 0.696 1 2 cbr 1000 ------- 2 1.0 2.0 87 87
- 0.696 1 2 cbr 1000 ------- 2 1.0 2.0 87 87
r 0.6988 1 2 cbr 1000 ------- 2 1.0 2.0 86 86
+ 0.704 1 2 cbr 1000 ------- 2 1.0 2.0 88 88
- 0.704 1 2 cbr 1000 ------- 2 1.0 2.0 88 88
r 0.7068 1 2 cbr 1000 ------- 2 1.0 2.0 87 87
+ 0.712 1 2 cbr 1000 ------- 2 1.0 2.0 89 89
- 0.712 1 2 cbr 1000 ------- 2 1.0 2.0 89 89
r 0.7148 1 2 cbr 1000 ------- 2 1.0 2.0 88 88
+ 0.72 1 2 cbr 1000 ------- 2 1.0 2.0 90 90
- 0.72 1 2 cbr 1000 ------- 2 1.0 2.0 90 90
r 0.7228 1 2 cbr 1000 ------- 2 1.0 2.0 89 89
+ 0.728 1 2 cbr 1000 ------- 2 1.0 2.0 91 91
- 0.728 1 2 cbr 1000 ------- 2 1.0 2.0 91 91
r 0.7308 1 2 cbr 1000 ------- 2 1.0 2.0 90 90
+ 0.736 1 2 cbr 1000 ------- 2 1.0 2.0 92 92
- 0.736 1 2 cbr 1000 ------- 2 1.0 2.0 92 92
r 0.7388 1 2 cbr 1000 ------- 2 1.0 2.0 91 91
+ 0.744 1 2 cbr 1000 ------- 2 1.0 2.0 93 93
- 0.744 1 2 cbr 1000 ------- 2 1.0 2.0 93 93
r 0.7468 1 2 cbr 1000 ------- 2 1.0 2.0 92 92
+ 0.752 1 2 cbr 1000 ------- 2 1.0 2.0 94 94
- 0.752 1 2 cbr 1000 ------- 2 1.0 2.0 94 94
r 0.7548 1 2 cbr 1000 ------- 2 1.0 2.0 93 93
+ 0.76 1 2 cbr 1000 ------- 2 1.0 2.0 95 95
- 0.76 1 2 cbr 1000 ------- 2 1.0 2.0 95 95
r 0.7628 1 2 cbr 1000 ------- 2 1.0 2.0 94 94
+ 0.768 1 2 cbr 1000 ------- 2 1.0 2.0 96 96
- 0.768 1 2 cbr 1000 ------- 2 1.0 2.0 96 96
r 0.7708 1 2 cbr 1000 ------- 2 1.0 2.0 95 95
+ 0.776 1 2 cbr 1000 ------- 2 1.0 2.0 97 97
- 0.776 1 2 cbr 1000 ------- 2 1.0 2.0 97 97
r 0.7788 1 2 cbr 1000 ------- 2 1.0 2.0 96 96
+ 0.784 1 2 cbr 1000 ------- 2 1.0 2.0 98 98
- 0.784 1 2 cbr 1000 ------- 2 1.0 2.0 98 98
r 0.7868 1 2 cbr 1000 ------- 2 1.0 2.0 97 97
+ 0.792 1 2 cbr 1000 ------- 2 1.0 2.0 99 99
- 0.792 1 2 cbr 1000 ------- 2 1.0 2.0 99 99
r 0.7948 1 2 cbr 1000 ------- 2 1.0 2.0 98 98
+ 0.8 1 2 cbr 1000 ------- 2 1.0 2.0 100 100
- 0.8 1 2 cbr 1000 ------- 2 1.0 2.0 100 100
r 0.8028 1 2 cbr 1000 ------- 2 1.0 2.0 99 99
+ 0.808 1 2 cbr 1000 ------- 2 1.0 2.0 101 101
- 0.808 1 2 cbr 1000 ------- 2 1.0 2.0 101 101
r 0.8108 1 2 cbr 1000 ------- 2 1.0 2.0 100 100
+ 0.816 1 2 cbr 1000 ------- 2 1.0 2.0 102 102
- 0.816 1 2 cbr 1000 ------- 2 1.0 2.0 102 102
r 0.8188 1 2 cbr 1000 ------- 2 1.0 2.0 101 101
+ 0.824 1 2 cbr 1000 ------- 2 1.0 2.0 103 103
- 0.824 1 2 cbr 1000 ------- 2 1.0 2.0 103 103
r 0.8268 1 2 cbr 1000 ------- 2 1.0 2.0 102 102
+ 0.832 1 2 cbr 1000 ------- 2 1.0 2.0 104 104
- 0.832 1 2 cbr 1000 ------- 2 1.0 2.0 104 104
r 0.8348 1 2 cbr 1000 ------- 2 1.0 2.0 103 103
+ 0.84 1 2 cbr 1000 ------- 2 1.0 2.0 105 105
- 0.84 1 2 cbr 1000 ------- 2 1.0 2.0 105 105
r 0.8428 1 2 cbr 1000 ------- 2 1.0 2.0 104 104
+ 0.848 1 2 cbr 1000 ------- 2 1.0 2.0 106 106
- 0.848 1 2 cbr 1000 ------- 2 1.0 2.0 106 106
r 0.8508 1 2 cbr 1000 ------- 2 1.0 2.0 105 105
+ 0.856 1 2 cbr 1000 ------- 2 1.0 2.0 107 107
- 0.856 1 2 cbr 1000 ------- 2 1.0 2.0 107 107
r 0.8588 1 2 cbr 1000 ------- 2 1.0 2.0 106 106
+ 0.864 1 2 cbr 1000 ------- 2 1.0 2.0 108 108
- 0.864 1 2 cbr 1000 ------- 2 1.0 2.0 108 108
r 0.8668 1 2 cbr 1000 ------- 2 1.0 2.0 107 107
+ 0.872 1 2 cbr 1000 ------- 2 1.0 2.0 109 109
- 0.872 1 2 cbr 1000 ------- 2 1.0 2.0 109 109
r 0.8748 1 2 cbr 1000 ------- 2 1.0 2.0 108 108
+ 0.88 1 2 cbr 1000 ------- 2 1.0 2.0 110 110
- 0.88 1 2 cbr 1000 ------- 2 1.0 2.0 110 110
r 0.8828 1 2 cbr 1000 ------- 2 1.0 2.0 109 109
+ 0.888 1 2 cbr 1000 ------- 2 1.0 2.0 111 111
- 0.888 1 2 cbr 1000 ------- 2 1.0 2.0 111 111
r 0.8908 1 2 cbr 1000 ------- 2 1.0 2.0 110 110
+ 0.896 1 2 cbr 1000 ------- 2 1.0 2.0 112 112
- 0.896 1 2 cbr 1000 ------- 2 1.0 2.0 112 112
r 0.8988 1 2 cbr 1000 ------- 2 1.0 2.0 111 111
+ 0.904 1 2 cbr 1000 ------- 2 1.0 2.0 113 113
- 0.904 1 2 cbr 1000 ------- 2 1.0 2.0 113 113
r 0.9068 1 2 cbr 1000 ------- 2 1.0 2.0 112 112
+ 0.912 1 2 cbr 1000 ------- 2 1.0 2.0 114 114
- 0.912 1 2 cbr 1000 ------- 2 1.0 2.0 114 114
r 0.9148 1 2 cbr 1000 ------- 2 1.0 2.0 113 113
+ 0.92 1 2 cbr 1000 ------- 2 1.0 2.0 115 115
- 0.92 1 2 cbr 1000 ------- 2 1.0 2.0 115 115
r 0.9228 1 2 cbr 1000 ------- 2 1.0 2.0 114 114
+ 0.928 1 2 cbr 1000 ------- 2 1.0 2.0 116 116
- 0.928 1 2 cbr 1000 ------- 2 1.0 2.0 116 116
r 0.9308 1 2 cbr 1000 ------- 2 1.0 2.0 115 115
+ 0.936 1 2 cbr 1000 ------- 2 1.0 2.0 117 117
- 0.936 1 2 cbr 1000 ------- 2 1.0 2.0 117 117
r 0.9388 1 2 cbr 1000 ------- 2 1.0 2.0 116 116
+ 0.944 1 2 cbr 1000 ------- 2 1.0 2.0 118 118
- 0.944 1 2 cbr 1000 ------- 2 1.0 2.0 118 118
r 0.9468 1 2 cbr 1000 ------- 2 1.0 2.0 117 117
+ 0.952 1 2 cbr 1000 ------- 2 1.0 2.0 119 119
- 0.952 1 2 cbr 1000 ------- 2 1.0 2.0 119 119
r 0.9548 1 2 cbr 1000 ------- 2 1.0 2.0 118 118
+ 0.96 1 2 cbr 1000 ------- 2 1.0 2.0 120 120
- 0.96 1 2 cbr 1000 ------- 2 1.0 2.0 120 120
r 0.9628 1 2 cbr 1000 ------- 2 1.0 2.0 119 119
+ 0.968 1 2 cbr 1000 ------- 2 1.0 2.0 121 121
- 0.968 1 2 cbr 1000 ------- 2 1.0 2.0 121 121
r 0.9708 1 2 cbr 1000 ------- 2 1.0 2.0 120 120
+ 0.976 1 2 cbr 1000 ------- 2 1.0 2.0 122 122
- 0.976 1 2 cbr 1000 ------- 2 1.0 2.0 122 122
r 0.9788 1 2 cbr 1000 ------- 2 1.0 2.0 121 121
+ 0.984 1 2 cbr 1000 ------- 2 1.0 2.0 123 123
- 0.984 1 2 cbr 1000 ------- 2 1.0 2.0 123 123
r 0.9868 1 2 cbr 1000 ------- 2 1.0 2.0 122 122
+ 0.992 1 2 cbr 1000 ------- 2 1.0 2.0 124 124
- 0.992 1 2 cbr 1000 ------- 2 1.0 2.0 124 124
r 0.9948 1 2 cbr 1000 ------- 2 1.0 2.0 123 123
+ 1 0 1 tcp 1000 ------- 1 0.0 3.0 0 125
- 1 0 1 tcp 1000 ------- 1 0.0 3.0 0 125
+ 1 1 2 cbr 1000 ------- 2 1.0 2.0 125 126
- 1 1 2 cbr 1000 ------- 2 1.0 2.0 125 126
r 1.0028 1 2 cbr 1000 ------- 2 1.0 2.0 124 124
+ 1.008 1 2 cbr 1000 ------- 2 1.0 2.0 126 127
- 1.008 1 2 cbr 1000 ------- 2 1.0 2.0 126 127
r 1.0108 0 1 tcp 1000 ------- 1 0.0 3.0 0 125
+ 1.0108 1 2 tcp 1000 ------- 1 0.0 3.0 0 125
- 1.0108 1 2 tcp 1000 ------- 1 0.0 3.0 0 125
r 1.0108 1 2 cbr 1000 ------- 2 1.0 2.0 125 126
+ 1.016 1 2 cbr 1000 ------- 2 1.0 2.0 127 128
- 1.016 1 2 cbr 1000 ------- 2 1.0 2.0 127 128
r 1.0188 1 2 cbr 1000 ------- 2 1.0 2.0 126 127
r 1.0216 1 2 tcp 1000 ------- 1 0.0 3.0 0 125
+ 1.0216 2 3 tcp 1000 ------- 1 0.0 3.0 0 125
- 1.0216 2 3 tcp 1000 ------- 1 0.0 3.0 0 125
+ 1.024 1 2 cbr 1000 ------- 2 1.0 2.0 128 129
- 1.024 1 2 cbr 1000 ------- 2 1.0 2.0 128 129
r 1.0268 1 2 cbr 1000 ------- 2 1.0 2.0 127 128
+ 1.032 1 2 cbr 1000 ------- 2 1.0 2.0 129 130
- 1.032 1 2 cbr 1000 ------- 2 1.0 2.0 129 130
r 1.0324 2 3 tcp 1000 ------- 1 0.0 3.0 0 125
+ 1.0324 3 2 ack 40 ------- 1 3.0 0.0 0 131
- 1.0324 3 2 ack 40 ------- 1 3.0 0.0 0 131
r 1.0348 1 2 cbr 1000 ------- 2 1.0 2.0 128 129
+ 1.04 1 2 cbr 1000 ------- 2 1.0 2.0 130 132
- 1.04 1 2 cbr 1000 ------- 2 1.0 2.0 130 132
r 1.042432 3 2 ack 40 ------- 1 3.0 0.0 0 131
+ 1.042432 2 1 ack 40 ------- 1 3.0 0.0 0 131
- 1.042432 2 1 ack 40 ------- 1 3.0 0.0 0 131
r 1.0428 1 2 cbr 1000 ------- 2 1.0 2.0 129 130
+ 1.048 1 2 cbr 1000 ------- 2 1.0 2.0 131 133
- 1.048 1 2 cbr 1000 ------- 2 1.0 2.0 131 133
r 1.0508 1 2 cbr 1000 ------- 2 1.0 2.0 130 132
r 1.052464 2 1 ack 40 ------- 1 3.0 0.0 0 131
+ 1.052464 1 0 ack 40 ------- 1 3.0 0.0 0 131
- 1.052464 1 0 ack 40 ------- 1 3.0 0.0 0 131
+ 1.056 1 2 cbr 1000 ------- 2 1.0 2.0 132 134
- 1.056 1 2 cbr 1000 ------- 2 1.0 2.0 132 134
r 1.0588 1 2 cbr 1000 ------- 2 1.0 2.0 131 133
r 1.062496 1 0 ack 40 ------- 1 3.0 0.0 0 131
+ 1.062496 0 1 tcp 1000 ------- 1 0.0 3.0 1 135
- 1.062496 0 1 tcp 1000 ------- 1 0.0 3.0 1 135
+ 1.064 1 2 cbr 1000 ------- 2 1.0 2.0 133 136
- 1.064 1 2 cbr 1000 ------- 2 1.0 2.0 133 136
r 1.0668 1 2 cbr 1000 ------- 2 1.0 2.0 132 134
+ 1.072 1 2 cbr 1000 ------- 2 1.0 2.0 134 137
- 1.072 1 2 cbr 1000 ------- 2 1.0 2.0 134 137
r 1.073296 0 1 tcp 1000 ------- 1 0.0 3.0 1 135
+ 1.073296 1 2 tcp 1000 ------- 1 0.0 3.0 1 135
- 1.073296 1 2 tcp 1000 ------- 1 0.0 3.0 1 135
r 1.0748 1 2 cbr 1000 ------- 2 1.0 2.0 133 136
+ 1.08 1 2 cbr 1000 ------- 2 1.0 2.0 135 138
- 1.08 1 2 cbr 1000 ------- 2 1.0 2.0 135 138
r 1.0828 1 2 cbr 1000 ------- 2 1.0 2.0 134 137
r 1.084096 1 2 tcp 1000 ------- 1 0.0 3.0 1 135
+ 1.084096 2 3 tcp 1000 ------- 1 0.0 3.0 1 135
- 1.084096 2 3 tcp 1000 ------- 1 0.0 3.0 1 135
+ 1.088 1 2 cbr 1000 ------- 2 1.0 2.0 136 139
- 1.088 1 2 cbr 1000 ------- 2 1.0 2.0 136 139
r 1.0908 1 2 cbr 1000 ------- 2 1.0 2.0 135 138
r 1.094896 2 3 tcp 1000 ------- 1 0.0 3.0 1 135
+ 1.094896 3 2 ack 40 ------- 1 3.0 0.0 1 140
- 1.094896 3 2 ack 40 ------- 1 3.0 0.0 1 140
+ 1.096 1 2 cbr 1000 ------- 2 1.0 2.0 137 141
- 1.096 1 2 cbr 1000 ------- 2 1.0 2.0 137 141
r 1.0988 1 2 cbr 1000 ------- 2 1.0 2.0 136 139
+ 1.104 1 2 cbr 1000 ------- 2 1.0 2.0 138 142
- 1.104 1 2 cbr 1000 ------- 2 1.0 2.0 138 142
r 1.104928 3 2 ack 40 ------- 1 3.0 0.0 1 140
+ 1.104928 2 1 ack 40 ------- 1 3.0 0.0 1 140
- 1.104928 2 1 ack 40 ------- 1 3.0 0.0 1 140
r 1.1068 1 2 cbr 1000 ------- 2 1.0 2.0 137 141
+ 1.112 1 2 cbr 1000 ------- 2 1.0 2.0 139 143
- 1.112 1 2 cbr 1000 ------- 2 1.0 2.0 139 143
r 1.1148 1 2 cbr 1000 ------- 2 1.0 2.0 138 142
r 1.11496 2 1 ack 40 ------- 1 3.0 0.0 1 140
+ 1.11496 1 0 ack 40 ------- 1 3.0 0.0 1 140
- 1.11496 1 0 ack 40 ------- 1 3.0 0.0 1 140
+ 1.12 1 2 cbr 1000 ------- 2 1.0 2.0 140 144
- 1.12 1 2 cbr 1000 ------- 2 1.0 2.0 140 144
r 1.1228 1 2 cbr 1000 ------- 2 1.0 2.0 139 143
r 1.124992 1 0 ack 40 ------- 1 3.0 0.0 1 140
+ 1.124992 0 1 tcp 1000 ------- 1 0.0 3.0 2 145
- 1.124992 0 1 tcp 1000 ------- 1 0.0 3.0 2 145
+ 1.124992 0 1 tcp 1000 ------- 1 0.0 3.0 3 146
+ 1.124992 0 1 tcp 1000 ------- 1 0.0 3.0 4 147
- 1.125792 0 1 tcp 1000 ------- 1 0.0 3.0 3 146
- 1.126592 0 1 tcp 1000 ------- 1 0.0 3.0 4 147
+ 1.128 1 2 cbr 1000 ------- 2 1.0 2.0 141 148
- 1.128 1 2 cbr 1000 ------- 2 1.0 2.0 141 148
r 1.1308 1 2 cbr 1000 ------- 2 1.0 2.0 140 144
r 1.135792 0 1 tcp 1000 ------- 1 0.0 3.0 2 145
+ 1.135792 1 2 tcp 1000 ------- 1 0.0 3.0 2 145
- 1.135792 1 2 tcp 1000 ------- 1 0.0 3.0 2 145
+ 1.136 1 2 cbr 1000 ------- 2 1.0 2.0 142 149
r 1.136592 0 1 tcp 1000 ------- 1 0.0 3.0 3 146
+ 1.136592 1 2 tcp 1000 ------- 1 0.0 3.0 3 146
- 1.136592 1 2 cbr 1000 ------- 2 1.0 2.0 142 149
r 1.137392 0 1 tcp 1000 ------- 1 0.0 3.0 4 147
+ 1.137392 1 2 tcp 1000 ------- 1 0.0 3.0 4 147
- 1.137392 1 2 tcp 1000 ------- 1 0.0 3.0 3 146
- 1.138192 1 2 tcp 1000 ------- 1 0.0 3.0 4 147
r 1.1388 1 2 cbr 1000 ------- 2 1.0 2.0 141 148
+ 1.144 1 2 cbr 1000 ------- 2 1.0 2.0 143 150
- 1.144 1 2 cbr 1000 ------- 2 1.0 2.0 143 150
r 1.146592 1 2 tcp 1000 ------- 1 0.0 3.0 2 145
+ 1.146592 2 3 tcp 1000 ------- 1 0.0 3.0 2 145
- 1.146592 2 3 tcp 1000 ------- 1 0.0 3.0 2 145
r 1.147392 1 2 cbr 1000 ------- 2 1.0 2.0 142 149
r 1.148192 1 2 tcp 1000 ------- 1 0.0 3.0 3 146
+ 1.148192 2 3 tcp 1000 ------- 1 0.0 3.0 3 146
- 1.148192 2 3 tcp 1000 ------- 1 0.0 3.0 3 146
r 1.148992 1 2 tcp 1000 ------- 1 0.0 3.0 4 147
+ 1.148992 2 3 tcp 1000 ------- 1 0.0 3.0 4 147
- 1.148992 2 3 tcp 1000 ------- 1 0.0 3.0 4 147
+ 1.152 1 2 cbr 1000 ------- 2 1.0 2.0 144 151
- 1.152 1 2 cbr 1000 ------- 2 1.0 2.0 144 151
r 1.1548 1 2 cbr 1000 ------- 2 1.0 2.0 143 150
r 1.157392 2 3 tcp 1000 ------- 1 0.0 3.0 2 145
+ 1.157392 3 2 ack 40 ------- 1 3.0 0.0 2 152
- 1.157392 3 2 ack 40 ------- 1 3.0 0.0 2 152
r 1.158992 2 3 tcp 1000 ------- 1 0.0 3.0 3 146
+ 1.158992 3 2 ack 40 ------- 1 3.0 0.0 3 153
- 1.158992 3 2 ack 40 ------- 1 3.0 0.0 3 153
r 1.159792 2 3 tcp 1000 ------- 1 0.0 3.0 4 147
+ 1.159792 3 2 ack 40 ------- 1 3.0 0.0 4 154
- 1.159792 3 2 ack 40 ------- 1 3.0 0.0 4 154
+ 1.16 1 2 cbr 1000 ------- 2 1.0 2.0 145 155
- 1.16 1 2 cbr 1000 ------- 2 1.0 2.0 145 155
r 1.1628 1 2 cbr 1000 ------- 2 1.0 2.0 144 151
r 1.167424 3 2 ack 40 ------- 1 3.0 0.0 2 152
+ 1.167424 2 1 ack 40 ------- 1 3.0 0.0 2 152
- 1.167424 2 1 ack 40 ------- 1 3.0 0.0 2 152
+ 1.168 1 2 cbr 1000 ------- 2 1.0 2.0 146 156
- 1.168 1 2 cbr 1000 ------- 2 1.0 2.0 146 156
r 1.169024 3 2 ack 40 ------- 1 3.0 0.0 3 153
+ 1.169024 2 1 ack 40 ------- 1 3.0 0.0 3 153
- 1.169024 2 1 ack 40 ------- 1 3.0 0.0 3 153
r 1.169824 3 2 ack 40 ------- 1 3.0 0.0 4 154
+ 1.169824 2 1 ack 40 ------- 1 3.0 0.0 4 154
- 1.169824 2 1 ack 40 ------- 1 3.0 0.0 4 154
r 1.1708 1 2 cbr 1000 ------- 2 1.0 2.0 145 155
+ 1.176 1 2 cbr 1000 ------- 2 1.0 2.0 147 157
- 1.176 1 2 cbr 1000 ------- 2 1.0 2.0 147 157
r 1.177456 2 1 ack 40 ------- 1 3.0 0.0 2 152
+ 1.177456 1 0 ack 40 ------- 1 3.0 0.0 2 152
- 1.177456 1 0 ack 40 ------- 1 3.0 0.0 2 152
r 1.1788 1 2 cbr 1000 ------- 2 1.0 2.0 146 156
r 1.179056 2 1 ack 40 ------- 1 3.0 0.0 3 153
+ 1.179056 1 0 ack 40 ------- 1 3.0 0.0 3 153
- 1.179056 1 0 ack 40 ------- 1 3.0 0.0 3 153
r 1.179856 2 1 ack 40 ------- 1 3.0 0.0 4 154
+ 1.179856 1 0 ack 40 ------- 1 3.0 0.0 4 154
- 1.179856 1 0 ack 40 ------- 1 3.0 0.0 4 154
+ 1.184 1 2 cbr 1000 ------- 2 1.0 2.0 148 158
- 1.184 1 2 cbr 1000 ------- 2 1.0 2.0 148 158
r 1.1868 1 2 cbr 1000 ------- 2 1.0 2.0 147 157
r 1.187488 1 0 ack 40 ------- 1 3.0 0.0 2 152
+ 1.187488 0 1 tcp 1000 ------- 1 0.0 3.0 5 159
- 1.187488 0 1 tcp 1000 ------- 1 0.0 3.0 5 159
r 1.189088 1 0 ack 40 ------- 1 3.0 0.0 3 153
+ 1.189088 0 1 tcp 1000 ------- 1 0.0 3.0 6 160
- 1.189088 0 1 tcp 1000 ------- 1 0.0 3.0 6 160
r 1.189888 1 0 ack 40 ------- 1 3.0 0.0 4 154
+ 1.189888 0 1 tcp 1000 ------- 1 0.0 3.0 7 161
- 1.189888 0 1 tcp 1000 ------- 1 0.0 3.0 7 161
+ 1.192 1 2 cbr 1000 ------- 2 1.0 2.0 149 162
- 1.192 1 2 cbr 1000 ------- 2 1.0 2.0 149 162
r 1.1948 1 2 cbr 1000 ------- 2 1.0 2.0 148 158
r 1.198288 0 1 tcp 1000 ------- 1 0.0 3.0 5 159
+ 1.198288 1 2 tcp 1000 ------- 1 0.0 3.0 5 159
- 1.198288 1 2 tcp 1000 ------- 1 0.0 3.0 5 159
r 1.199888 0 1 tcp 1000 ------- 1 0.0 3.0 6 160
+ 1.199888 1 2 tcp 1000 ------- 1 0.0 3.0 6 160
- 1.199888 1 2 tcp 1000 ------- 1 0.0 3.0 6 160
+ 1.2 1 2 cbr 1000 ------- 2 1.0 2.0 150 163
r 1.200688 0 1 tcp 1000 ------- 1 0.0 3.0 7 161
+ 1.200688 1 2 tcp 1000 ------- 1 0.0 3.0 7 161
- 1.200688 1 2 cbr 1000 ------- 2 1.0 2.0 150 163
- 1.201488 1 2 tcp 1000 ------- 1 0.0 3.0 7 161
r 1.2028 1 2 cbr 1000 ------- 2 1.0 2.0 149 162
+ 1.208 1 2 cbr 1000 ------- 2 1.0 2.0 151 164
- 1.208 1 2 cbr 1000 ------- 2 1.0 2.0 151 164
r 1.209088 1 2 tcp 1000 ------- 1 0.0 3.0 5 159
+ 1.209088 2 3 tcp 1000 ------- 1 0.0 3.0 5 159
- 1.209088 2 3 tcp 1000 ------- 1 0.0 3.0 5 159
r 1.210688 1 2 tcp 1000 ------- 1 0.0 3.0 6 160
+ 1.210688 2 3 tcp 1000 ------- 1 0.0 3.0 6 160
- 1.210688 2 3 tcp 1000 ------- 1 0.0 3.0 6 160
r 1.211488 1 2 cbr 1000 ------- 2 1.0 2.0 150 163
r 1.212288 1 2 tcp 1000 ------- 1 0.0 3.0 7 161
+ 1.212288 2 3 tcp 1000 ------- 1 0.0 3.0 7 161
- 1.212288 2 3 tcp 1000 ------- 1 0.0 3.0 7 161
+ 1.216 1 2 cbr 1000 ------- 2 1.0 2.0 152 165
- 1.216 1 2 cbr 1000 ------- 2 1.0 2.0 152 165
r 1.2188 1 2 cbr 1000 ------- 2 1.0 2.0 151 164
r 1.219888 2 3 tcp 1000 ------- 1 0.0 3.0 5 159
+ 1.219888 3 2 ack 40 ------- 1 3.0 0.0 5 166
- 1.219888 3 2 ack 40 ------- 1 3.0 0.0 5 166
r 1.221488 2 3 tcp 1000 ------- 1 0.0 3.0 6 160
+ 1.221488 3 2 ack 40 ------- 1 3.0 0.0 6 167
- 1.221488 3 2 ack 40 ------- 1 3.0 0.0 6 167
r 1.223088 2 3 tcp 1000 ------- 1 0.0 3.0 7 161
+ 1.223088 3 2 ack 40 ------- 1 3.0 0.0 7 168
- 1.223088 3 2 ack 40 ------- 1 3.0 0.0 7 168
+ 1.224 1 2 cbr 1000 ------- 2 1.0 2.0 153 169
- 1.224 1 2 cbr 1000 ------- 2 1.0 2.0 153 169
r 1.2268 1 2 cbr 1000 ------- 2 1.0 2.0 152 165
r 1.22992 3 2 ack 40 ------- 1 3.0 0.0 5 166
+ 1.22992 2 1 ack 40 ------- 1 3.0 0.0 5 166
- 1.22992 2 1 ack 40 ------- 1 3.0 0.0 5 166
r 1.23152 3 2 ack 40 ------- 1 3.0 0.0 6 167
+ 1.23152 2 1 ack 40 ------- 1 3.0 0.0 6 167
- 1.23152 2 1 ack 40 ------- 1 3.0 0.0 6 167
+ 1.232 1 2 cbr 1000 ------- 2 1.0 2.0 154 170
- 1.232 1 2 cbr 1000 ------- 2 1.0 2.0 154 170
r 1.23312 3 2 ack 40 ------- 1 3.0 0.0 7 168
+ 1.23312 2 1 ack 40 ------- 1 3.0 0.0 7 168
- 1.23312 2 1 ack 40 ------- 1 3.0 0.0 7 168
r 1.2348 1 2 cbr 1000 ------- 2 1.0 2.0 153 169
r 1.239952 2 1 ack 40 ------- 1 3.0 0.0 5 166
+ 1.239952 1 0 ack 40 ------- 1 3.0 0.0 5 166
- 1.239952 1 0 ack 40 ------- 1 3.0 0.0 5 166
+ 1.24 1 2 cbr 1000 ------- 2 1.0 2.0 155 171
- 1.24 1 2 cbr 1000 ------- 2 1.0 2.0 155 171
r 1.241552 2 1 ack 40 ------- 1 3.0 0.0 6 167
+ 1.241552 1 0 ack 40 ------- 1 3.0 0.0 6 167
- 1.241552 1 0 ack 40 ------- 1 3.0 0.0 6 167
r 1.2428 1 2 cbr 1000 ------- 2 1.0 2.0 154 170
r 1.243152 2 1 ack 40 ------- 1 3.0 0.0 7 168
+ 1.243152 1 0 ack 40 ------- 1 3.0 0.0 7 168
- 1.243152 1 0 ack 40 ------- 1 3.0 0.0 7 168
+ 1.248 1 2 cbr 1000 ------- 2 1.0 2.0 156 172
- 1.248 1 2 cbr 1000 ------- 2 1.0 2.0 156 172
r 1.249984 1 0 ack 40 ------- 1 3.0 0.0 5 166
+ 1.249984 0 1 tcp 1000 ------- 1 0.0 3.0 8 173
- 1.249984 0 1 tcp 1000 ------- 1 0.0 3.0 8 173
+ 1.249984 0 1 tcp 1000 ------- 1 0.0 3.0 9 174
- 1.250784 0 1 tcp 1000 ------- 1 0.0 3.0 9 174
r 1.2508 1 2 cbr 1000 ------- 2 1.0 2.0 155 171
r 1.251584 1 0 ack 40 ------- 1 3.0 0.0 6 167
+ 1.251584 0 1 tcp 1000 ------- 1 0.0 3.0 10 175
+ 1.251584 0 1 tcp 1000 ------- 1 0.0 3.0 11 176
- 1.251584 0 1 tcp 1000 ------- 1 0.0 3.0 10 175
- 1.252384 0 1 tcp 1000 ------- 1 0.0 3.0 11 176
r 1.253184 1 0 ack 40 ------- 1 3.0 0.0 7 168
+ 1.253184 0 1 tcp 1000 ------- 1 0.0 3.0 12 177
+ 1.253184 0 1 tcp 1000 ------- 1 0.0 3.0 13 178
- 1.253184 0 1 tcp 1000 ------- 1 0.0 3.0 12 177
- 1.253984 0 1 tcp 1000 ------- 1 0.0 3.0 13 178
+ 1.256 1 2 cbr 1000 ------- 2 1.0 2.0 157 179
- 1.256 1 2 cbr 1000 ------- 2 1.0 2.0 157 179
r 1.2588 1 2 cbr 1000 ------- 2 1.0 2.0 156 172
r 1.260784 0 1 tcp 1000 ------- 1 0.0 3.0 8 173
+ 1.260784 1 2 tcp 1000 ------- 1 0.0 3.0 8 173
- 1.260784 1 2 tcp 1000 ------- 1 0.0 3.0 8 173
r 1.261584 0 1 tcp 1000 ------- 1 0.0 3.0 9 174
+ 1.261584 1 2 tcp 1000 ------- 1 0.0 3.0 9 174
- 1.261584 1 2 tcp 1000 ------- 1 0.0 3.0 9 174
r 1.262384 0 1 tcp 1000 ------- 1 0.0 3.0 10 175
+ 1.262384 1 2 tcp 1000 ------- 1 0.0 3.0 10 175
- 1.262384 1 2 tcp 1000 ------- 1 0.0 3.0 10 175
r 1.263184 0 1 tcp 1000 ------- 1 0.0 3.0 11 176
+ 1.263184 1 2 tcp 1000 ------- 1 0.0 3.0 11 176
- 1.263184 1 2 tcp 1000 ------- 1 0.0 3.0 11 176
r 1.263984 0 1 tcp 1000 ------- 1 0.0 3.0 12 177
+ 1.263984 1 2 tcp 1000 ------- 1 0.0 3.0 12 177
- 1.263984 1 2 tcp 1000 ------- 1 0.0 3.0 12 177
+ 1.264 1 2 cbr 1000 ------- 2 1.0 2.0 158 180
r 1.264784 0 1 tcp 1000 ------- 1 0.0 3.0 13 178
+ 1.264784 1 2 tcp 1000 ------- 1 0.0 3.0 13 178
- 1.264784 1 2 cbr 1000 ------- 2 1.0 2.0 158 180
- 1.265584 1 2 tcp 1000 ------- 1 0.0 3.0 13 178
r 1.2668 1 2 cbr 1000 ------- 2 1.0 2.0 157 179