+ 0 1 2 cbr 1000 ------- 2 1.0 2.0 0 0
- 0 1 2 cbr 1000 ------- 2 1.0 2.0 0 0
+ 0.0016 1 2 cbr 1000 ------- 2 1.0 2.0 1 1
- 0.0016 1 2 cbr 1000 ------- 2 1.0 2.0 1 1
+ 0.0032 1 2 cbr 1000 ------- 2 1.0 2.0 2 2
- 0.0032 1 2 cbr 1000 ------- 2 1.0 2.0 2 2
+ 0.0048 1 2 cbr 1000 ------- 2 1.0 2.0 3 3
- 0.0048 1 2 cbr 1000 ------- 2 1.0 2.0 3 3
+ 0.0064 1 2 cbr 1000 ------- 2 1.0 2.0 4 4
- 0.0064 1 2 cbr 1000 ------- 2 1.0 2.0 4 4
+ 0.008 1 2 cbr 1000 ------- 2 1.0 2.0 5 5
- 0.008 1 2 cbr 1000 ------- 2 1.0 2.0 5 5
+ 0.0096 1 2 cbr 1000 ------- 2 1.0 2.0 6 6
- 0.0096 1 2 cbr 1000 ------- 2 1.0 2.0 6 6
r 0.0108 1 2 cbr 1000 ------- 2 1.0 2.0 0 0
+ 0.0112 1 2 cbr 1000 ------- 2 1.0 2.0 7 7
- 0.0112 1 2 cbr 1000 ------- 2 1.0 2.0 7 7
r 0.0124 1 2 cbr 1000 ------- 2 1.0 2.0 1 1
+ 0.0128 1 2 cbr 1000 ------- 2 1.0 2.0 8 8
- 0.0128 1 2 cbr 1000 ------- 2 1.0 2.0 8 8
r 0.014 1 2 cbr 1000 ------- 2 1.0 2.0 2 2
+ 0.0144 1 2 cbr 1000 ------- 2 1.0 2.0 9 9
- 0.0144 1 2 cbr 1000 ------- 2 1.0 2.0 9 9
r 0.0156 1 2 cbr 1000 ------- 2 1.0 2.0 3 3
+ 0.016 1 2 cbr 1000 ------- 2 1.0 2.0 10 10
- 0.016 1 2 cbr 1000 ------- 2 1.0 2.0 10 10
r 0.0172 1 2 cbr 1000 ------- 2 1.0 2.0 4 4
+ 0.0176 1 2 cbr 1000 ------- 2 1.0 2.0 11 11
- 0.0176 1 2 cbr 1000 ------- 2 1.0 2.0 11 11
r 0.0188 1 2 cbr 1000 ------- 2 1.0 2.0 5 5
+ 0.0192 1 2 cbr 1000 ------- 2 1.0 2.0 12 12
- 0.0192 1 2 cbr 1000 ------- 2 1.0 2.0 12 12
r 0.0204 1 2 cbr 1000 ------- 2 1.0 2.0 6 6
+ 0.0208 1 2 cbr 1000 ------- 2 1.0 2.0 13 13
- 0.0208 1 2 cbr 1000 ------- 2 1.0 2.0 13 13
r 0.022 1 2 cbr 1000 ------- 2 1.0 2.0 7 7
+ 0.0224 1 2 cbr 1000 ------- 2 1.0 2.0 14 14
- 0.0224 1 2 cbr 1000 ------- 2 1.0 2.0 14 14
r 0.0236 1 2 cbr 1000 ------- 2 1.0 2.0 8 8
+ 0.024 1 2 cbr 1000 ------- 2 1.0 2.0 15 15
- 0.024 1 2 cbr 1000 ------- 2 1.0 2.0 15 15
r 0.0252 1 2 cbr 1000 ------- 2 1.0 2.0 9 9
+ 0.0256 1 2 cbr 1000 ------- 2 1.0 2.0 16 16
- 0.0256 1 2 cbr 1000 ------- 2 1.0 2.0 16 16
r 0.0268 1 2 cbr 1000 ------- 2 1.0 2.0 10 10
+ 0.0272 1 2 cbr 1000 ------- 2 1.0 2.0 17 17
- 0.0272 1 2 cbr 1000 ------- 2 1.0 2.0 17 17
r 0.0284 1 2 cbr 1000 ------- 2 1.0 2.0 11 11
+ 0.0288 1 2 cbr 1000 ------- 2 1.0 2.0 18 18
- 0.0288 1 2 cbr 1000 ------- 2 1.0 2.0 18 18
r 0.03 1 2 cbr 1000 ------- 2 1.0 2.0 12 12
+ 0.0304 1 2 cbr 1000 ------- 2 1.0 2.0 19 19
- 0.0304 1 2 cbr 1000 ------- 2 1.0 2.0 19 19
r 0.0316 1 2 cbr 1000 ------- 2 1.0 2.0 13 13
+ 0.032 1 2 cbr 1000 ------- 2 1.0 2.0 20 20
- 0.032 1 2 cbr 1000 ------- 2 1.0 2.0 20 20
r 0.0332 1 2 cbr 1000 ------- 2 1.0 2.0 14 14
+ 0.0336 1 2 cbr 1000 ------- 2 1.0 2.0 21 21
- 0.0336 1 2 cbr 1000 ------- 2 1.0 2.0 21 21
r 0.0348 1 2 cbr 1000 ------- 2 1.0 2.0 15 15
+ 0.0352 1 2 cbr 1000 ------- 2 1.0 2.0 22 22
- 0.0352 1 2 cbr 1000 ------- 2 1.0 2.0 22 22
r 0.0364 1 2 cbr 1000 ------- 2 1.0 2.0 16 16
+ 0.0368 1 2 cbr 1000 ------- 2 1.0 2.0 23 23
- 0.0368 1 2 cbr 1000 ------- 2 1.0 2.0 23 23
r 0.038 1 2 cbr 1000 ------- 2 1.0 2.0 17 17
+ 0.0384 1 2 cbr 1000 ------- 2 1.0 2.0 24 24
- 0.0384 1 2 cbr 1000 ------- 2 1.0 2.0 24 24
r 0.0396 1 2 cbr 1000 ------- 2 1.0 2.0 18 18
+ 0.04 1 2 cbr 1000 ------- 2 1.0 2.0 25 25
- 0.04 1 2 cbr 1000 ------- 2 1.0 2.0 25 25
r 0.0412 1 2 cbr 1000 ------- 2 1.0 2.0 19 19
+ 0.0416 1 2 cbr 1000 ------- 2 1.0 2.0 26 26
- 0.0416 1 2 cbr 1000 ------- 2 1.0 2.0 26 26
r 0.0428 1 2 cbr 1000 ------- 2 1.0 2.0 20 20
+ 0.0432 1 2 cbr 1000 ------- 2 1.0 2.0 27 27
- 0.0432 1 2 cbr 1000 ------- 2 1.0 2.0 27 27
r 0.0444 1 2 cbr 1000 ------- 2 1.0 2.0 21 21
+ 0.0448 1 2 cbr 1000 ------- 2 1.0 2.0 28 28
- 0.0448 1 2 cbr 1000 ------- 2 1.0 2.0 28 28
r 0.046 1 2 cbr 1000 ------- 2 1.0 2.0 22 22
+ 0.0464 1 2 cbr 1000 ------- 2 1.0 2.0 29 29
- 0.0464 1 2 cbr 1000 ------- 2 1.0 2.0 29 29
r 0.0476 1 2 cbr 1000 ------- 2 1.0 2.0 23 23
+ 0.048 1 2 cbr 1000 ------- 2 1.0 2.0 30 30
- 0.048 1 2 cbr 1000 ------- 2 1.0 2.0 30 30
r 0.0492 1 2 cbr 1000 ------- 2 1.0 2.0 24 24
+ 0.0496 1 2 cbr 1000 ------- 2 1.0 2.0 31 31
- 0.0496 1 2 cbr 1000 ------- 2 1.0 2.0 31 31
r 0.0508 1 2 cbr 1000 ------- 2 1.0 2.0 25 25
+ 0.0512 1 2 cbr 1000 ------- 2 1.0 2.0 32 32
- 0.0512 1 2 cbr 1000 ------- 2 1.0 2.0 32 32
r 0.0524 1 2 cbr 1000 ------- 2 1.0 2.0 26 26
+ 0.0528 1 2 cbr 1000 ------- 2 1.0 2.0 33 33
- 0.0528 1 2 cbr 1000 ------- 2 1.0 2.0 33 33
r 0.054 1 2 cbr 1000 ------- 2 1.0 2.0 27 27
+ 0.0544 1 2 cbr 1000 ------- 2 1.0 2.0 34 34
- 0.0544 1 2 cbr 1000 ------- 2 1.0 2.0 34 34
r 0.0556 1 2 cbr 1000 ------- 2 1.0 2.0 28 28
+ 0.056 1 2 cbr 1000 ------- 2 1.0 2.0 35 35
- 0.056 1 2 cbr 1000 ------- 2 1.0 2.0 35 35
r 0.0572 1 2 cbr 1000 ------- 2 1.0 2.0 29 29
+ 0.0576 1 2 cbr 1000 ------- 2 1.0 2.0 36 36
- 0.0576 1 2 cbr 1000 ------- 2 1.0 2.0 36 36
r 0.0588 1 2 cbr 1000 ------- 2 1.0 2.0 30 30
+ 0.0592 1 2 cbr 1000 ------- 2 1.0 2.0 37 37
- 0.0592 1 2 cbr 1000 ------- 2 1.0 2.0 37 37
r 0.0604 1 2 cbr 1000 ------- 2 1.0 2.0 31 31
+ 0.0608 1 2 cbr 1000 ------- 2 1.0 2.0 38 38
- 0.0608 1 2 cbr 1000 ------- 2 1.0 2.0 38 38
r 0.062 1 2 cbr 1000 ------- 2 1.0 2.0 32 32
+ 0.0624 1 2 cbr 1000 ------- 2 1.0 2.0 39 39
- 0.0624 1 2 cbr 1000 ------- 2 1.0 2.0 39 39
r 0.0636 1 2 cbr 1000 ------- 2 1.0 2.0 33 33
+ 0.064 1 2 cbr 1000 ------- 2 1.0 2.0 40 40
- 0.064 1 2 cbr 1000 ------- 2 1.0 2.0 40 40
r 0.0652 1 2 cbr 1000 ------- 2 1.0 2.0 34 34
+ 0.0656 1 2 cbr 1000 ------- 2 1.0 2.0 41 41
- 0.0656 1 2 cbr 1000 ------- 2 1.0 2.0 41 41
r 0.0668 1 2 cbr 1000 ------- 2 1.0 2.0 35 35
+ 0.0672 1 2 cbr 1000 ------- 2 1.0 2.0 42 42
- 0.0672 1 2 cbr 1000 ------- 2 1.0 2.0 42 42
r 0.0684 1 2 cbr 1000 ------- 2 1.0 2.0 36 36
+ 0.0688 1 2 cbr 1000 ------- 2 1.0 2.0 43 43
- 0.0688 1 2 cbr 1000 ------- 2 1.0 2.0 43 43
r 0.07 1 2 cbr 1000 ------- 2 1.0 2.0 37 37
+ 0.0704 1 2 cbr 1000 ------- 2 1.0 2.0 44 44
- 0.0704 1 2 cbr 1000 ------- 2 1.0 2.0 44 44
r 0.0716 1 2 cbr 1000 ------- 2 1.0 2.0 38 38
+ 0.072 1 2 cbr 1000 ------- 2 1.0 2.0 45 45
- 0.072 1 2 cbr 1000 ------- 2 1.0 2.0 45 45
r 0.0732 1 2 cbr 1000 ------- 2 1.0 2.0 39 39
+ 0.0736 1 2 cbr 1000 ------- 2 1.0 2.0 46 46
- 0.0736 1 2 cbr 1000 ------- 2 1.0 2.0 46 46
r 0.0748 1 2 cbr 1000 ------- 2 1.0 2.0 40 40
+ 0.0752 1 2 cbr 1000 ------- 2 1.0 2.0 47 47
- 0.0752 1 2 cbr 1000 ------- 2 1.0 2.0 47 47
r 0.0764 1 2 cbr 1000 ------- 2 1.0 2.0 41 41
+ 0.0768 1 2 cbr 1000 ------- 2 1.0 2.0 48 48
- 0.0768 1 2 cbr 1000 ------- 2 1.0 2.0 48 48
r 0.078 1 2 cbr 1000 ------- 2 1.0 2.0 42 42
+ 0.0784 1 2 cbr 1000 ------- 2 1.0 2.0 49 49
- 0.0784 1 2 cbr 1000 ------- 2 1.0 2.0 49 49
r 0.0796 1 2 cbr 1000 ------- 2 1.0 2.0 43 43
+ 0.08 1 2 cbr 1000 ------- 2 1.0 2.0 50 50
- 0.08 1 2 cbr 1000 ------- 2 1.0 2.0 50 50
r 0.0812 1 2 cbr 1000 ------- 2 1.0 2.0 44 44
+ 0.0816 1 2 cbr 1000 ------- 2 1.0 2.0 51 51
- 0.0816 1 2 cbr 1000 ------- 2 1.0 2.0 51 51
r 0.0828 1 2 cbr 1000 ------- 2 1.0 2.0 45 45
+ 0.0832 1 2 cbr 1000 ------- 2 1.0 2.0 52 52
- 0.0832 1 2 cbr 1000 ------- 2 1.0 2.0 52 52
r 0.0844 1 2 cbr 1000 ------- 2 1.0 2.0 46 46
+ 0.0848 1 2 cbr 1000 ------- 2 1.0 2.0 53 53
- 0.0848 1 2 cbr 1000 ------- 2 1.0 2.0 53 53
r 0.086 1 2 cbr 1000 ------- 2 1.0 2.0 47 47
+ 0.0864 1 2 cbr 1000 ------- 2 1.0 2.0 54 54
- 0.0864 1 2 cbr 1000 ------- 2 1.0 2.0 54 54
r 0.0876 1 2 cbr 1000 ------- 2 1.0 2.0 48 48
+ 0.088 1 2 cbr 1000 ------- 2 1.0 2.0 55 55
- 0.088 1 2 cbr 1000 ------- 2 1.0 2.0 55 55
r 0.0892 1 2 cbr 1000 ------- 2 1.0 2.0 49 49
+ 0.0896 1 2 cbr 1000 ------- 2 1.0 2.0 56 56
- 0.0896 1 2 cbr 1000 ------- 2 1.0 2.0 56 56
r 0.0908 1 2 cbr 1000 ------- 2 1.0 2.0 50 50
+ 0.0912 1 2 cbr 1000 ------- 2 1.0 2.0 57 57
- 0.0912 1 2 cbr 1000 ------- 2 1.0 2.0 57 57
r 0.0924 1 2 cbr 1000 ------- 2 1.0 2.0 51 51
+ 0.0928 1 2 cbr 1000 ------- 2 1.0 2.0 58 58
- 0.0928 1 2 cbr 1000 ------- 2 1.0 2.0 58 58
r 0.094 1 2 cbr 1000 ------- 2 1.0 2.0 52 52
+ 0.0944 1 2 cbr 1000 ------- 2 1.0 2.0 59 59
- 0.0944 1 2 cbr 1000 ------- 2 1.0 2.0 59 59
r 0.0956 1 2 cbr 1000 ------- 2 1.0 2.0 53 53
+ 0.096 1 2 cbr 1000 ------- 2 1.0 2.0 60 60
- 0.096 1 2 cbr 1000 ------- 2 1.0 2.0 60 60
r 0.0972 1 2 cbr 1000 ------- 2 1.0 2.0 54 54
+ 0.0976 1 2 cbr 1000 ------- 2 1.0 2.0 61 61
- 0.0976 1 2 cbr 1000 ------- 2 1.0 2.0 61 61
r 0.0988 1 2 cbr 1000 ------- 2 1.0 2.0 55 55
+ 0.0992 1 2 cbr 1000 ------- 2 1.0 2.0 62 62
- 0.0992 1 2 cbr 1000 ------- 2 1.0 2.0 62 62
r 0.1004 1 2 cbr 1000 ------- 2 1.0 2.0 56 56
+ 0.1008 1 2 cbr 1000 ------- 2 1.0 2.0 63 63
- 0.1008 1 2 cbr 1000 ------- 2 1.0 2.0 63 63
r 0.102 1 2 cbr 1000 ------- 2 1.0 2.0 57 57
+ 0.1024 1 2 cbr 1000 ------- 2 1.0 2.0 64 64
- 0.1024 1 2 cbr 1000 ------- 2 1.0 2.0 64 64
r 0.1036 1 2 cbr 1000 ------- 2 1.0 2.0 58 58
+ 0.104 1 2 cbr 1000 ------- 2 1.0 2.0 65 65
- 0.104 1 2 cbr 1000 ------- 2 1.0 2.0 65 65
r 0.1052 1 2 cbr 1000 ------- 2 1.0 2.0 59 59
+ 0.1056 1 2 cbr 1000 ------- 2 1.0 2.0 66 66
- 0.1056 1 2 cbr 1000 ------- 2 1.0 2.0 66 66
r 0.1068 1 2 cbr 1000 ------- 2 1.0 2.0 60 60
+ 0.1072 1 2 cbr 1000 ------- 2 1.0 2.0 67 67
- 0.1072 1 2 cbr 1000 ------- 2 1.0 2.0 67 67
r 0.1084 1 2 cbr 1000 ------- 2 1.0 2.0 61 61
+ 0.1088 1 2 cbr 1000 ------- 2 1.0 2.0 68 68
- 0.1088 1 2 cbr 1000 ------- 2 1.0 2.0 68 68
r 0.11 1 2 cbr 1000 ------- 2 1.0 2.0 62 62
+ 0.1104 1 2 cbr 1000 ------- 2 1.0 2.0 69 69
- 0.1104 1 2 cbr 1000 ------- 2 1.0 2.0 69 69
r 0.1116 1 2 cbr 1000 ------- 2 1.0 2.0 63 63
+ 0.112 1 2 cbr 1000 ------- 2 1.0 2.0 70 70
- 0.112 1 2 cbr 1000 ------- 2 1.0 2.0 70 70
r 0.1132 1 2 cbr 1000 ------- 2 1.0 2.0 64 64
+ 0.1136 1 2 cbr 1000 ------- 2 1.0 2.0 71 71
- 0.1136 1 2 cbr 1000 ------- 2 1.0 2.0 71 71
r 0.1148 1 2 cbr 1000 ------- 2 1.0 2.0 65 65
+ 0.1152 1 2 cbr 1000 ------- 2 1.0 2.0 72 72
- 0.1152 1 2 cbr 1000 ------- 2 1.0 2.0 72 72
r 0.1164 1 2 cbr 1000 ------- 2 1.0 2.0 66 66
+ 0.1168 1 2 cbr 1000 ------- 2 1.0 2.0 73 73
- 0.1168 1 2 cbr 1000 ------- 2 1.0 2.0 73 73
r 0.118 1 2 cbr 1000 ------- 2 1.0 2.0 67 67
+ 0.1184 1 2 cbr 1000 ------- 2 1.0 2.0 74 74
- 0.1184 1 2 cbr 1000 ------- 2 1.0 2.0 74 74
r 0.1196 1 2 cbr 1000 ------- 2 1.0 2.0 68 68
+ 0.12 1 2 cbr 1000 ------- 2 1.0 2.0 75 75
- 0.12 1 2 cbr 1000 ------- 2 1.0 2.0 75 75
r 0.1212 1 2 cbr 1000 ------- 2 1.0 2.0 69 69
+ 0.1216 1 2 cbr 1000 ------- 2 1.0 2.0 76 76
- 0.1216 1 2 cbr 1000 ------- 2 1.0 2.0 76 76
r 0.1228 1 2 cbr 1000 ------- 2 1.0 2.0 70 70
+ 0.1232 1 2 cbr 1000 ------- 2 1.0 2.0 77 77
- 0.1232 1 2 cbr 1000 ------- 2 1.0 2.0 77 77
r 0.1244 1 2 cbr 1000 ------- 2 1.0 2.0 71 71
+ 0.1248 1 2 cbr 1000 ------- 2 1.0 2.0 78 78
- 0.1248 1 2 cbr 1000 ------- 2 1.0 2.0 78 78
r 0.126 1 2 cbr 1000 ------- 2 1.0 2.0 72 72
+ 0.1264 1 2 cbr 1000 ------- 2 1.0 2.0 79 79
- 0.1264 1 2 cbr 1000 ------- 2 1.0 2.0 79 79
r 0.1276 1 2 cbr 1000 ------- 2 1.0 2.0 73 73
+ 0.128 1 2 cbr 1000 ------- 2 1.0 2.0 80 80
- 0.128 1 2 cbr 1000 ------- 2 1.0 2.0 80 80
r 0.1292 1 2 cbr 1000 ------- 2 1.0 2.0 74 74
+ 0.1296 1 2 cbr 1000 ------- 2 1.0 2.0 81 81
- 0.1296 1 2 cbr 1000 ------- 2 1.0 2.0 81 81
r 0.1308 1 2 cbr 1000 ------- 2 1.0 2.0 75 75
+ 0.1312 1 2 cbr 1000 ------- 2 1.0 2.0 82 82
- 0.1312 1 2 cbr 1000 ------- 2 1.0 2.0 82 82
r 0.1324 1 2 cbr 1000 ------- 2 1.0 2.0 76 76
+ 0.1328 1 2 cbr 1000 ------- 2 1.0 2.0 83 83
- 0.1328 1 2 cbr 1000 ------- 2 1.0 2.0 83 83
r 0.134 1 2 cbr 1000 ------- 2 1.0 2.0 77 77
+ 0.1344 1 2 cbr 1000 ------- 2 1.0 2.0 84 84
- 0.1344 1 2 cbr 1000 ------- 2 1.0 2.0 84 84
r 0.1356 1 2 cbr 1000 ------- 2 1.0 2.0 78 78
+ 0.136 1 2 cbr 1000 ------- 2 1.0 2.0 85 85
- 0.136 1 2 cbr 1000 ------- 2 1.0 2.0 85 85
r 0.1372 1 2 cbr 1000 ------- 2 1.0 2.0 79 79
+ 0.1376 1 2 cbr 1000 ------- 2 1.0 2.0 86 86
- 0.1376 1 2 cbr 1000 ------- 2 1.0 2.0 86 86
r 0.1388 1 2 cbr 1000 ------- 2 1.0 2.0 80 80
+ 0.1392 1 2 cbr 1000 ------- 2 1.0 2.0 87 87
- 0.1392 1 2 cbr 1000 ------- 2 1.0 2.0 87 87
r 0.1404 1 2 cbr 1000 ------- 2 1.0 2.0 81 81
+ 0.1408 1 2 cbr 1000 ------- 2 1.0 2.0 88 88
- 0.1408 1 2 cbr 1000 ------- 2 1.0 2.0 88 88
r 0.142 1 2 cbr 1000 ------- 2 1.0 2.0 82 82
+ 0.1424 1 2 cbr 1000 ------- 2 1.0 2.0 89 89
- 0.1424 1 2 cbr 1000 ------- 2 1.0 2.0 89 89
r 0.1436 1 2 cbr 1000 ------- 2 1.0 2.0 83 83
+ 0.144 1 2 cbr 1000 ------- 2 1.0 2.0 90 90
- 0.144 1 2 cbr 1000 ------- 2 1.0 2.0 90 90
r 0.1452 1 2 cbr 1000 ------- 2 1.0 2.0 84 84
+ 0.1456 1 2 cbr 1000 ------- 2 1.0 2.0 91 91
- 0.1456 1 2 cbr 1000 ------- 2 1.0 2.0 91 91
r 0.1468 1 2 cbr 1000 ------- 2 1.0 2.0 85 85
+ 0.1472 1 2 cbr 1000 ------- 2 1.0 2.0 92 92
- 0.1472 1 2 cbr 1000 ------- 2 1.0 2.0 92 92
r 0.1484 1 2 cbr 1000 ------- 2 1.0 2.0 86 86
+ 0.1488 1 2 cbr 1000 ------- 2 1.0 2.0 93 93
- 0.1488 1 2 cbr 1000 ------- 2 1.0 2.0 93 93
r 0.15 1 2 cbr 1000 ------- 2 1.0 2.0 87 87
+ 0.1504 1 2 cbr 1000 ------- 2 1.0 2.0 94 94
- 0.1504 1 2 cbr 1000 ------- 2 1.0 2.0 94 94
r 0.1516 1 2 cbr 1000 ------- 2 1.0 2.0 88 88
+ 0.152 1 2 cbr 1000 ------- 2 1.0 2.0 95 95
- 0.152 1 2 cbr 1000 ------- 2 1.0 2.0 95 95
r 0.1532 1 2 cbr 1000 ------- 2 1.0 2.0 89 89
+ 0.1536 1 2 cbr 1000 ------- 2 1.0 2.0 96 96
- 0.1536 1 2 cbr 1000 ------- 2 1.0 2.0 96 96
r 0.1548 1 2 cbr 1000 ------- 2 1.0 2.0 90 90
+ 0.1552 1 2 cbr 1000 ------- 2 1.0 2.0 97 97
- 0.1552 1 2 cbr 1000 ------- 2 1.0 2.0 97 97
r 0.1564 1 2 cbr 1000 ------- 2 1.0 2.0 91 91
+ 0.1568 1 2 cbr 1000 ------- 2 1.0 2.0 98 98
- 0.1568 1 2 cbr 1000 ------- 2 1.0 2.0 98 98
r 0.158 1 2 cbr 1000 ------- 2 1.0 2.0 92 92
+ 0.1584 1 2 cbr 1000 ------- 2 1.0 2.0 99 99
- 0.1584 1 2 cbr 1000 ------- 2 1.0 2.0 99 99
r 0.1596 1 2 cbr 1000 ------- 2 1.0 2.0 93 93
+ 0.16 1 2 cbr 1000 ------- 2 1.0 2.0 100 100
- 0.16 1 2 cbr 1000 ------- 2 1.0 2.0 100 100
r 0.1612 1 2 cbr 1000 ------- 2 1.0 2.0 94 94
+ 0.1616 1 2 cbr 1000 ------- 2 1.0 2.0 101 101
- 0.1616 1 2 cbr 1000 ------- 2 1.0 2.0 101 101
r 0.1628 1 2 cbr 1000 ------- 2 1.0 2.0 95 95
+ 0.1632 1 2 cbr 1000 ------- 2 1.0 2.0 102 102
- 0.1632 1 2 cbr 1000 ------- 2 1.0 2.0 102 102
r 0.1644 1 2 cbr 1000 ------- 2 1.0 2.0 96 96
+ 0.1648 1 2 cbr 1000 ------- 2 1.0 2.0 103 103
- 0.1648 1 2 cbr 1000 ------- 2 1.0 2.0 103 103
r 0.166 1 2 cbr 1000 ------- 2 1.0 2.0 97 97
+ 0.1664 1 2 cbr 1000 ------- 2 1.0 2.0 104 104
- 0.1664 1 2 cbr 1000 ------- 2 1.0 2.0 104 104
r 0.1676 1 2 cbr 1000 ------- 2 1.0 2.0 98 98
+ 0.168 1 2 cbr 1000 ------- 2 1.0 2.0 105 105
- 0.168 1 2 cbr 1000 ------- 2 1.0 2.0 105 105
r 0.1692 1 2 cbr 1000 ------- 2 1.0 2.0 99 99
+ 0.1696 1 2 cbr 1000 ------- 2 1.0 2.0 106 106
- 0.1696 1 2 cbr 1000 ------- 2 1.0 2.0 106 106
r 0.1708 1 2 cbr 1000 ------- 2 1.0 2.0 100 100
+ 0.1712 1 2 cbr 1000 ------- 2 1.0 2.0 107 107
- 0.1712 1 2 cbr 1000 ------- 2 1.0 2.0 107 107
r 0.1724 1 2 cbr 1000 ------- 2 1.0 2.0 101 101
+ 0.1728 1 2 cbr 1000 ------- 2 1.0 2.0 108 108
- 0.1728 1 2 cbr 1000 ------- 2 1.0 2.0 108 108
r 0.174 1 2 cbr 1000 ------- 2 1.0 2.0 102 102
+ 0.1744 1 2 cbr 1000 ------- 2 1.0 2.0 109 109
- 0.1744 1 2 cbr 1000 ------- 2 1.0 2.0 109 109
r 0.1756 1 2 cbr 1000 ------- 2 1.0 2.0 103 103
+ 0.176 1 2 cbr 1000 ------- 2 1.0 2.0 110 110
- 0.176 1 2 cbr 1000 ------- 2 1.0 2.0 110 110
r 0.1772 1 2 cbr 1000 ------- 2 1.0 2.0 104 104
+ 0.1776 1 2 cbr 1000 ------- 2 1.0 2.0 111 111
- 0.1776 1 2 cbr 1000 ------- 2 1.0 2.0 111 111
r 0.1788 1 2 cbr 1000 ------- 2 1.0 2.0 105 105
+ 0.1792 1 2 cbr 1000 ------- 2 1.0 2.0 112 112
- 0.1792 1 2 cbr 1000 ------- 2 1.0 2.0 112 112
r 0.1804 1 2 cbr 1000 ------- 2 1.0 2.0 106 106
+ 0.1808 1 2 cbr 1000 ------- 2 1.0 2.0 113 113
- 0.1808 1 2 cbr 1000 ------- 2 1.0 2.0 113 113
r 0.182 1 2 cbr 1000 ------- 2 1.0 2.0 107 107
+ 0.1824 1 2 cbr 1000 ------- 2 1.0 2.0 114 114
- 0.1824 1 2 cbr 1000 ------- 2 1.0 2.0 114 114
r 0.1836 1 2 cbr 1000 ------- 2 1.0 2.0 108 108
+ 0.184 1 2 cbr 1000 ------- 2 1.0 2.0 115 115
- 0.184 1 2 cbr 1000 ------- 2 1.0 2.0 115 115
r 0.1852 1 2 cbr 1000 ------- 2 1.0 2.0 109 109
+ 0.1856 1 2 cbr 1000 ------- 2 1.0 2.0 116 116
- 0.1856 1 2 cbr 1000 ------- 2 1.0 2.0 116 116
r 0.1868 1 2 cbr 1000 ------- 2 1.0 2.0 110 110
+ 0.1872 1 2 cbr 1000 ------- 2 1.0 2.0 117 117
- 0.1872 1 2 cbr 1000 ------- 2 1.0 2.0 117 117
r 0.1884 1 2 cbr 1000 ------- 2 1.0 2.0 111 111
+ 0.1888 1 2 cbr 1000 ------- 2 1.0 2.0 118 118
- 0.1888 1 2 cbr 1000 ------- 2 1.0 2.0 118 118
r 0.19 1 2 cbr 1000 ------- 2 1.0 2.0 112 112
+ 0.1904 1 2 cbr 1000 ------- 2 1.0 2.0 119 119
- 0.1904 1 2 cbr 1000 ------- 2 1.0 2.0 119 119
r 0.1916 1 2 cbr 1000 ------- 2 1.0 2.0 113 113
+ 0.192 1 2 cbr 1000 ------- 2 1.0 2.0 120 120
- 0.192 1 2 cbr 1000 ------- 2 1.0 2.0 120 120
r 0.1932 1 2 cbr 1000 ------- 2 1.0 2.0 114 114
+ 0.1936 1 2 cbr 1000 ------- 2 1.0 2.0 121 121
- 0.1936 1 2 cbr 1000 ------- 2 1.0 2.0 121 121
r 0.1948 1 2 cbr 1000 ------- 2 1.0 2.0 115 115
+ 0.1952 1 2 cbr 1000 ------- 2 1.0 2.0 122 122
- 0.1952 1 2 cbr 1000 ------- 2 1.0 2.0 122 122
r 0.1964 1 2 cbr 1000 ------- 2 1.0 2.0 116 116
+ 0.1968 1 2 cbr 1000 ------- 2 1.0 2.0 123 123
- 0.1968 1 2 cbr 1000 ------- 2 1.0 2.0 123 123
r 0.198 1 2 cbr 1000 ------- 2 1.0 2.0 117 117
+ 0.1984 1 2 cbr 1000 ------- 2 1.0 2.0 124 124
- 0.1984 1 2 cbr 1000 ------- 2 1.0 2.0 124 124
r 0.1996 1 2 cbr 1000 ------- 2 1.0 2.0 118 118
+ 0.2 1 2 cbr 1000 ------- 2 1.0 2.0 125 125
- 0.2 1 2 cbr 1000 ------- 2 1.0 2.0 125 125
r 0.2012 1 2 cbr 1000 ------- 2 1.0 2.0 119 119
+ 0.2016 1 2 cbr 1000 ------- 2 1.0 2.0 126 126
- 0.2016 1 2 cbr 1000 ------- 2 1.0 2.0 126 126
r 0.2028 1 2 cbr 1000 ------- 2 1.0 2.0 120 120
+ 0.2032 1 2 cbr 1000 ------- 2 1.0 2.0 127 127
- 0.2032 1 2 cbr 1000 ------- 2 1.0 2.0 127 127
r 0.2044 1 2 cbr 1000 ------- 2 1.0 2.0 121 121
+ 0.2048 1 2 cbr 1000 ------- 2 1.0 2.0 128 128
- 0.2048 1 2 cbr 1000 ------- 2 1.0 2.0 128 128
r 0.206 1 2 cbr 1000 ------- 2 1.0 2.0 122 122
+ 0.2064 1 2 cbr 1000 ------- 2 1.0 2.0 129 129
- 0.2064 1 2 cbr 1000 ------- 2 1.0 2.0 129 129
r 0.2076 1 2 cbr 1000 ------- 2 1.0 2.0 123 123
+ 0.208 1 2 cbr 1000 ------- 2 1.0 2.0 130 130
- 0.208 1 2 cbr 1000 ------- 2 1.0 2.0 130 130
r 0.2092 1 2 cbr 1000 ------- 2 1.0 2.0 124 124
+ 0.2096 1 2 cbr 1000 ------- 2 1.0 2.0 131 131
- 0.2096 1 2 cbr 1000 ------- 2 1.0 2.0 131 131
r 0.2108 1 2 cbr 1000 ------- 2 1.0 2.0 125 125
+ 0.2112 1 2 cbr 1000 ------- 2 1.0 2.0 132 132
- 0.2112 1 2 cbr 1000 ------- 2 1.0 2.0 132 132
r 0.2124 1 2 cbr 1000 ------- 2 1.0 2.0 126 126
+ 0.2128 1 2 cbr 1000 ------- 2 1.0 2.0 133 133
- 0.2128 1 2 cbr 1000 ------- 2 1.0 2.0 133 133
r 0.214 1 2 cbr 1000 ------- 2 1.0 2.0 127 127
+ 0.2144 1 2 cbr 1000 ------- 2 1.0 2.0 134 134
- 0.2144 1 2 cbr 1000 ------- 2 1.0 2.0 134 134
r 0.2156 1 2 cbr 1000 ------- 2 1.0 2.0 128 128
+ 0.216 1 2 cbr 1000 ------- 2 1.0 2.0 135 135
- 0.216 1 2 cbr 1000 ------- 2 1.0 2.0 135 135
r 0.2172 1 2 cbr 1000 ------- 2 1.0 2.0 129 129
+ 0.2176 1 2 cbr 1000 ------- 2 1.0 2.0 136 136
- 0.2176 1 2 cbr 1000 ------- 2 1.0 2.0 136 136
r 0.2188 1 2 cbr 1000 ------- 2 1.0 2.0 130 130
+ 0.2192 1 2 cbr 1000 ------- 2 1.0 2.0 137 137
- 0.2192 1 2 cbr 1000 ------- 2 1.0 2.0 137 137
r 0.2204 1 2 cbr 1000 ------- 2 1.0 2.0 131 131
+ 0.2208 1 2 cbr 1000 ------- 2 1.0 2.0 138 138
- 0.2208 1 2 cbr 1000 ------- 2 1.0 2.0 138 138
r 0.222 1 2 cbr 1000 ------- 2 1.0 2.0 132 132
+ 0.2224 1 2 cbr 1000 ------- 2 1.0 2.0 139 139
- 0.2224 1 2 cbr 1000 ------- 2 1.0 2.0 139 139
r 0.2236 1 2 cbr 1000 ------- 2 1.0 2.0 133 133
+ 0.224 1 2 cbr 1000 ------- 2 1.0 2.0 140 140
- 0.224 1 2 cbr 1000 ------- 2 1.0 2.0 140 140
r 0.2252 1 2 cbr 1000 ------- 2 1.0 2.0 134 134
+ 0.2256 1 2 cbr 1000 ------- 2 1.0 2.0 141 141
- 0.2256 1 2 cbr 1000 ------- 2 1.0 2.0 141 141
r 0.2268 1 2 cbr 1000 ------- 2 1.0 2.0 135 135
+ 0.2272 1 2 cbr 1000 ------- 2 1.0 2.0 142 142
- 0.2272 1 2 cbr 1000 ------- 2 1.0 2.0 142 142
r 0.2284 1 2 cbr 1000 ------- 2 1.0 2.0 136 136
+ 0.2288 1 2 cbr 1000 ------- 2 1.0 2.0 143 143
- 0.2288 1 2 cbr 1000 ------- 2 1.0 2.0 143 143
r 0.23 1 2 cbr 1000 ------- 2 1.0 2.0 137 137
+ 0.2304 1 2 cbr 1000 ------- 2 1.0 2.0 144 144
- 0.2304 1 2 cbr 1000 ------- 2 1.0 2.0 144 144
r 0.2316 1 2 cbr 1000 ------- 2 1.0 2.0 138 138
+ 0.232 1 2 cbr 1000 ------- 2 1.0 2.0 145 145
- 0.232 1 2 cbr 1000 ------- 2 1.0 2.0 145 145
r 0.2332 1 2 cbr 1000 ------- 2 1.0 2.0 139 139
+ 0.2336 1 2 cbr 1000 ------- 2 1.0 2.0 146 146
- 0.2336 1 2 cbr 1000 ------- 2 1.0 2.0 146 146
r 0.2348 1 2 cbr 1000 ------- 2 1.0 2.0 140 140
+ 0.2352 1 2 cbr 1000 ------- 2 1.0 2.0 147 147
- 0.2352 1 2 cbr 1000 ------- 2 1.0 2.0 147 147
r 0.2364 1 2 cbr 1000 ------- 2 1.0 2.0 141 141
+ 0.2368 1 2 cbr 1000 ------- 2 1.0 2.0 148 148
- 0.2368 1 2 cbr 1000 ------- 2 1.0 2.0 148 148
r 0.238 1 2 cbr 1000 ------- 2 1.0 2.0 142 142
+ 0.2384 1 2 cbr 1000 ------- 2 1.0 2.0 149 149
- 0.2384 1 2 cbr 1000 ------- 2 1.0 2.0 149 149
r 0.2396 1 2 cbr 1000 ------- 2 1.0 2.0 143 143
+ 0.24 1 2 cbr 1000 ------- 2 1.0 2.0 150 150
- 0.24 1 2 cbr 1000 ------- 2 1.0 2.0 150 150
r 0.2412 1 2 cbr 1000 ------- 2 1.0 2.0 144 144
+ 0.2416 1 2 cbr 1000 ------- 2 1.0 2.0 151 151
- 0.2416 1 2 cbr 1000 ------- 2 1.0 2.0 151 151
r 0.2428 1 2 cbr 1000 ------- 2 1.0 2.0 145 145
+ 0.2432 1 2 cbr 1000 ------- 2 1.0 2.0 152 152
- 0.2432 1 2 cbr 1000 ------- 2 1.0 2.0 152 152
r 0.2444 1 2 cbr 1000 ------- 2 1.0 2.0 146 146
+ 0.2448 1 2 cbr 1000 ------- 2 1.0 2.0 153 153
- 0.2448 1 2 cbr 1000 ------- 2 1.0 2.0 153 153
r 0.246 1 2 cbr 1000 ------- 2 1.0 2.0 147 147
+ 0.2464 1 2 cbr 1000 ------- 2 1.0 2.0 154 154
- 0.2464 1 2 cbr 1000 ------- 2 1.0 2.0 154 154
r 0.2476 1 2 cbr 1000 ------- 2 1.0 2.0 148 148
+ 0.248 1 2 cbr 1000 ------- 2 1.0 2.0 155 155
- 0.248 1 2 cbr 1000 ------- 2 1.0 2.0 155 155
r 0.2492 1 2 cbr 1000 ------- 2 1.0 2.0 149 149
+ 0.2496 1 2 cbr 1000 ------- 2 1.0 2.0 156 156
- 0.2496 1 2 cbr 1000 ------- 2 1.0 2.0 156 156
r 0.2508 1 2 cbr 1000 ------- 2 1.0 2.0 150 150
+ 0.2512 1 2 cbr 1000 ------- 2 1.0 2.0 157 157
- 0.2512 1 2 cbr 1000 ------- 2 1.0 2.0 157 157
r 0.2524 1 2 cbr 1000 ------- 2 1.0 2.0 151 151
+ 0.2528 1 2 cbr 1000 ------- 2 1.0 2.0 158 158
- 0.2528 1 2 cbr 1000 ------- 2 1.0 2.0 158 158
r 0.254 1 2 cbr 1000 ------- 2 1.0 2.0 152 152
+ 0.2544 1 2 cbr 1000 ------- 2 1.0 2.0 159 159
- 0.2544 1 2 cbr 1000 ------- 2 1.0 2.0 159 159
r 0.2556 1 2 cbr 1000 ------- 2 1.0 2.0 153 153
+ 0.256 1 2 cbr 1000 ------- 2 1.0 2.0 160 160
- 0.256 1 2 cbr 1000 ------- 2 1.0 2.0 160 160
r 0.2572 1 2 cbr 1000 ------- 2 1.0 2.0 154 154
+ 0.2576 1 2 cbr 1000 ------- 2 1.0 2.0 161 161
- 0.2576 1 2 cbr 1000 ------- 2 1.0 2.0 161 161
r 0.2588 1 2 cbr 1000 ------- 2 1.0 2.0 155 155
+ 0.2592 1 2 cbr 1000 ------- 2 1.0 2.0 162 162
- 0.2592 1 2 cbr 1000 ------- 2 1.0 2.0 162 162
r 0.2604 1 2 cbr 1000 ------- 2 1.0 2.0 156 156
+ 0.2608 1 2 cbr 1000 ------- 2 1.0 2.0 163 163
- 0.2608 1 2 cbr 1000 ------- 2 1.0 2.0 163 163
r 0.262 1 2 cbr 1000 ------- 2 1.0 2.0 157 157
+ 0.2624 1 2 cbr 1000 ------- 2 1.0 2.0 164 164
- 0.2624 1 2 cbr 1000 ------- 2 1.0 2.0 164 164
r 0.2636 1 2 cbr 1000 ------- 2 1.0 2.0 158 158
+ 0.264 1 2 cbr 1000 ------- 2 1.0 2.0 165 165
- 0.264 1 2 cbr 1000 ------- 2 1.0 2.0 165 165
r 0.2652 1 2 cbr 1000 ------- 2 1.0 2.0 159 159
+ 0.2656 1 2 cbr 1000 ------- 2 1.0 2.0 166 166
- 0.2656 1 2 cbr 1000 ------- 2 1.0 2.0 166 166
r 0.2668 1 2 cbr 1000 ------- 2 1.0 2.0 160 160
+ 0.2672 1 2 cbr 1000 ------- 2 1.0 2.0 167 167
- 0.2672 1 2 cbr 1000 ------- 2 1.0 2.0 167 167
r 0.2684 1 2 cbr 1000 ------- 2 1.0 2.0 161 161
+ 0.2688 1 2 cbr 1000 ------- 2 1.0 2.0 168 168
- 0.2688 1 2 cbr 1000 ------- 2 1.0 2.0 168 168
r 0.27 1 2 cbr 1000 ------- 2 1.0 2.0 162 162
+ 0.2704 1 2 cbr 1000 ------- 2 1.0 2.0 169 169
- 0.2704 1 2 cbr 1000 ------- 2 1.0 2.0 169 169
r 0.2716 1 2 cbr 1000 ------- 2 1.0 2.0 163 163
+ 0.272 1 2 cbr 1000 ------- 2 1.0 2.0 170 170
- 0.272 1 2 cbr 1000 ------- 2 1.0 2.0 170 170
r 0.2732 1 2 cbr 1000 ------- 2 1.0 2.0 164 164
+ 0.2736 1 2 cbr 1000 ------- 2 1.0 2.0 171 171
- 0.2736 1 2 cbr 1000 ------- 2 1.0 2.0 171 171
r 0.2748 1 2 cbr 1000 ------- 2 1.0 2.0 165 165
+ 0.2752 1 2 cbr 1000 ------- 2 1.0 2.0 172 172
- 0.2752 1 2 cbr 1000 ------- 2 1.0 2.0 172 172
r 0.2764 1 2 cbr 1000 ------- 2 1.0 2.0 166 166
+ 0.2768 1 2 cbr 1000 ------- 2 1.0 2.0 173 173
- 0.2768 1 2 cbr 1000 ------- 2 1.0 2.0 173 173
r 0.278 1 2 cbr 1000 ------- 2 1.0 2.0 167 167
+ 0.2784 1 2 cbr 1000 ------- 2 1.0 2.0 174 174
- 0.2784 1 2 cbr 1000 ------- 2 1.0 2.0 174 174
r 0.2796 1 2 cbr 1000 ------- 2 1.0 2.0 168 168
+ 0.28 1 2 cbr 1000 ------- 2 1.0 2.0 175 175
- 0.28 1 2 cbr 1000 ------- 2 1.0 2.0 175 175
r 0.2812 1 2 cbr 1000 ------- 2 1.0 2.0 169 169
+ 0.2816 1 2 cbr 1000 ------- 2 1.0 2.0 176 176
- 0.2816 1 2 cbr 1000 ------- 2 1.0 2.0 176 176
r 0.2828 1 2 cbr 1000 ------- 2 1.0 2.0 170 170
+ 0.2832 1 2 cbr 1000 ------- 2 1.0 2.0 177 177
- 0.2832 1 2 cbr 1000 ------- 2 1.0 2.0 177 177
r 0.2844 1 2 cbr 1000 ------- 2 1.0 2.0 171 171
+ 0.2848 1 2 cbr 1000 ------- 2 1.0 2.0 178 178
- 0.2848 1 2 cbr 1000 ------- 2 1.0 2.0 178 178
r 0.286 1 2 cbr 1000 ------- 2 1.0 2.0 172 172
+ 0.2864 1 2 cbr 1000 ------- 2 1.0 2.0 179 179
- 0.2864 1 2 cbr 1000 ------- 2 1.0 2.0 179 179
r 0.2876 1 2 cbr 1000 ------- 2 1.0 2.0 173 173
+ 0.288 1 2 cbr 1000 ------- 2 1.0 2.0 180 180
- 0.288 1 2 cbr 1000 ------- 2 1.0 2.0 180 180
r 0.2892 1 2 cbr 1000 ------- 2 1.0 2.0 174 174
+ 0.2896 1 2 cbr 1000 ------- 2 1.0 2.0 181 181
- 0.2896 1 2 cbr 1000 ------- 2 1.0 2.0 181 181
r 0.2908 1 2 cbr 1000 ------- 2 1.0 2.0 175 175
+ 0.2912 1 2 cbr 1000 ------- 2 1.0 2.0 182 182
- 0.2912 1 2 cbr 1000 ------- 2 1.0 2.0 182 182
r 0.2924 1 2 cbr 1000 ------- 2 1.0 2.0 176 176
+ 0.2928 1 2 cbr 1000 ------- 2 1.0 2.0 183 183
- 0.2928 1 2 cbr 1000 ------- 2 1.0 2.0 183 183
r 0.294 1 2 cbr 1000 ------- 2 1.0 2.0 177 177
+ 0.2944 1 2 cbr 1000 ------- 2 1.0 2.0 184 184
- 0.2944 1 2 cbr 1000 ------- 2 1.0 2.0 184 184
r 0.2956 1 2 cbr 1000 ------- 2 1.0 2.0 178 178
+ 0.296 1 2 cbr 1000 ------- 2 1.0 2.0 185 185
- 0.296 1 2 cbr 1000 ------- 2 1.0 2.0 185 185
r 0.2972 1 2 cbr 1000 ------- 2 1.0 2.0 179 179
+ 0.2976 1 2 cbr 1000 ------- 2 1.0 2.0 186 186
- 0.2976 1 2 cbr 1000 ------- 2 1.0 2.0 186 186
r 0.2988 1 2 cbr 1000 ------- 2 1.0 2.0 180 180
+ 0.2992 1 2 cbr 1000 ------- 2 1.0 2.0 187 187
- 0.2992 1 2 cbr 1000 ------- 2 1.0 2.0 187 187
r 0.3004 1 2 cbr 1000 ------- 2 1.0 2.0 181 181
+ 0.3008 1 2 cbr 1000 ------- 2 1.0 2.0 188 188
- 0.3008 1 2 cbr 1000 ------- 2 1.0 2.0 188 188
r 0.302 1 2 cbr 1000 ------- 2 1.0 2.0 182 182
+ 0.3024 1 2 cbr 1000 ------- 2 1.0 2.0 189 189
- 0.3024 1 2 cbr 1000 ------- 2 1.0 2.0 189 189
r 0.3036 1 2 cbr 1000 ------- 2 1.0 2.0 183 183
+ 0.304 1 2 cbr 1000 ------- 2 1.0 2.0 190 190
- 0.304 1 2 cbr 1000 ------- 2 1.0 2.0 190 190
r 0.3052 1 2 cbr 1000 ------- 2 1.0 2.0 184 184
+ 0.3056 1 2 cbr 1000 ------- 2 1.0 2.0 191 191
- 0.3056 1 2 cbr 1000 ------- 2 1.0 2.0 191 191
r 0.3068 1 2 cbr 1000 ------- 2 1.0 2.0 185 185
+ 0.3072 1 2 cbr 1000 ------- 2 1.0 2.0 192 192
- 0.3072 1 2 cbr 1000 ------- 2 1.0 2.0 192 192
r 0.3084 1 2 cbr 1000 ------- 2 1.0 2.0 186 186
+ 0.3088 1 2 cbr 1000 ------- 2 1.0 2.0 193 193
- 0.3088 1 2 cbr 1000 ------- 2 1.0 2.0 193 193
r 0.31 1 2 cbr 1000 ------- 2 1.0 2.0 187 187
+ 0.3104 1 2 cbr 1000 ------- 2 1.0 2.0 194 194
- 0.3104 1 2 cbr 1000 ------- 2 1.0 2.0 194 194
r 0.3116 1 2 cbr 1000 ------- 2 1.0 2.0 188 188
+ 0.312 1 2 cbr 1000 ------- 2 1.0 2.0 195 195
- 0.312 1 2 cbr 1000 ------- 2 1.0 2.0 195 195
r 0.3132 1 2 cbr 1000 ------- 2 1.0 2.0 189 189
+ 0.3136 1 2 cbr 1000 ------- 2 1.0 2.0 196 196
- 0.3136 1 2 cbr 1000 ------- 2 1.0 2.0 196 196
r 0.3148 1 2 cbr 1000 ------- 2 1.0 2.0 190 190
+ 0.3152 1 2 cbr 1000 ------- 2 1.0 2.0 197 197
- 0.3152 1 2 cbr 1000 ------- 2 1.0 2.0 197 197
r 0.3164 1 2 cbr 1000 ------- 2 1.0 2.0 191 191
+ 0.3168 1 2 cbr 1000 ------- 2 1.0 2.0 198 198
- 0.3168 1 2 cbr 1000 ------- 2 1.0 2.0 198 198
r 0.318 1 2 cbr 1000 ------- 2 1.0 2.0 192 192
+ 0.3184 1 2 cbr 1000 ------- 2 1.0 2.0 199 199
- 0.3184 1 2 cbr 1000 ------- 2 1.0 2.0 199 199
r 0.3196 1 2 cbr 1000 ------- 2 1.0 2.0 193 193
+ 0.32 1 2 cbr 1000 ------- 2 1.0 2.0 200 200
- 0.32 1 2 cbr 1000 ------- 2 1.0 2.0 200 200
r 0.3212 1 2 cbr 1000 ------- 2 1.0 2.0 194 194
+ 0.3216 1 2 cbr 1000 ------- 2 1.0 2.0 201 201
- 0.3216 1 2 cbr 1000 ------- 2 1.0 2.0 201 201
r 0.3228 1 2 cbr 1000 ------- 2 1.0 2.0 195 195
+ 0.3232 1 2 cbr 1000 ------- 2 1.0 2.0 202 202
- 0.3232 1 2 cbr 1000 ------- 2 1.0 2.0 202 202
r 0.3244 1 2 cbr 1000 ------- 2 1.0 2.0 196 196
+ 0.3248 1 2 cbr 1000 ------- 2 1.0 2.0 203 203
- 0.3248 1 2 cbr 1000 ------- 2 1.0 2.0 203 203
r 0.326 1 2 cbr 1000 ------- 2 1.0 2.0 197 197
+ 0.3264 1 2 cbr 1000 ------- 2 1.0 2.0 204 204
- 0.3264 1 2 cbr 1000 ------- 2 1.0 2.0 204 204
r 0.3276 1 2 cbr 1000 ------- 2 1.0 2.0 198 198
+ 0.328 1 2 cbr 1000 ------- 2 1.0 2.0 205 205
- 0.328 1 2 cbr 1000 ------- 2 1.0 2.0 205 205
r 0.3292 1 2 cbr 1000 ------- 2 1.0 2.0 199 199
+ 0.3296 1 2 cbr 1000 ------- 2 1.0 2.0 206 206
- 0.3296 1 2 cbr 1000 ------- 2 1.0 2.0 206 206
r 0.3308 1 2 cbr 1000 ------- 2 1.0 2.0 200 200
+ 0.3312 1 2 cbr 1000 ------- 2 1.0 2.0 207 207
- 0.3312 1 2 cbr 1000 ------- 2 1.0 2.0 207 207
r 0.3324 1 2 cbr 1000 ------- 2 1.0 2.0 201 201
+ 0.3328 1 2 cbr 1000 ------- 2 1.0 2.0 208 208
- 0.3328 1 2 cbr 1000 ------- 2 1.0 2.0 208 208
r 0.334 1 2 cbr 1000 ------- 2 1.0 2.0 202 202
+ 0.3344 1 2 cbr 1000 ------- 2 1.0 2.0 209 209
- 0.3344 1 2 cbr 1000 ------- 2 1.0 2.0 209 209
r 0.3356 1 2 cbr 1000 ------- 2 1.0 2.0 203 203
+ 0.336 1 2 cbr 1000 ------- 2 1.0 2.0 210 210
- 0.336 1 2 cbr 1000 ------- 2 1.0 2.0 210 210
r 0.3372 1 2 cbr 1000 ------- 2 1.0 2.0 204 204
+ 0.3376 1 2 cbr 1000 ------- 2 1.0 2.0 211 211
- 0.3376 1 2 cbr 1000 ------- 2 1.0 2.0 211 211
r 0.3388 1 2 cbr 1000 ------- 2 1.0 2.0 205 205
+ 0.3392 1 2 cbr 1000 ------- 2 1.0 2.0 212 212
- 0.3392 1 2 cbr 1000 ------- 2 1.0 2.0 212 212
r 0.3404 1 2 cbr 1000 ------- 2 1.0 2.0 206 206
+ 0.3408 1 2 cbr 1000 ------- 2 1.0 2.0 213 213
- 0.3408 1 2 cbr 1000 ------- 2 1.0 2.0 213 213
r 0.342 1 2 cbr 1000 ------- 2 1.0 2.0 207 207
+ 0.3424 1 2 cbr 1000 ------- 2 1.0 2.0 214 214
- 0.3424 1 2 cbr 1000 ------- 2 1.0 2.0 214 214
r 0.3436 1 2 cbr 1000 ------- 2 1.0 2.0 208 208
+ 0.344 1 2 cbr 1000 ------- 2 1.0 2.0 215 215
- 0.344 1 2 cbr 1000 ------- 2 1.0 2.0 215 215
r 0.3452 1 2 cbr 1000 ------- 2 1.0 2.0 209 209