+ 0 1 2 cbr 1000 ------- 3 1.0 2.0 0 0
- 0 1 2 cbr 1000 ------- 3 1.0 2.0 0 0
+ 0.001143 1 2 cbr 1000 ------- 3 1.0 2.0 1 1
- 0.001143 1 2 cbr 1000 ------- 3 1.0 2.0 1 1
+ 0.002286 1 2 cbr 1000 ------- 3 1.0 2.0 2 2
- 0.002286 1 2 cbr 1000 ------- 3 1.0 2.0 2 2
+ 0.003429 1 2 cbr 1000 ------- 3 1.0 2.0 3 3
- 0.003429 1 2 cbr 1000 ------- 3 1.0 2.0 3 3
+ 0.004571 1 2 cbr 1000 ------- 3 1.0 2.0 4 4
- 0.004571 1 2 cbr 1000 ------- 3 1.0 2.0 4 4
+ 0.005714 1 2 cbr 1000 ------- 3 1.0 2.0 5 5
- 0.005714 1 2 cbr 1000 ------- 3 1.0 2.0 5 5
+ 0.006857 1 2 cbr 1000 ------- 3 1.0 2.0 6 6
- 0.006857 1 2 cbr 1000 ------- 3 1.0 2.0 6 6
+ 0.008 1 2 cbr 1000 ------- 3 1.0 2.0 7 7
- 0.008 1 2 cbr 1000 ------- 3 1.0 2.0 7 7
+ 0.009143 1 2 cbr 1000 ------- 3 1.0 2.0 8 8
- 0.009143 1 2 cbr 1000 ------- 3 1.0 2.0 8 8
+ 0.010286 1 2 cbr 1000 ------- 3 1.0 2.0 9 9
- 0.010286 1 2 cbr 1000 ------- 3 1.0 2.0 9 9
r 0.0108 1 2 cbr 1000 ------- 3 1.0 2.0 0 0
+ 0.011429 1 2 cbr 1000 ------- 3 1.0 2.0 10 10
- 0.011429 1 2 cbr 1000 ------- 3 1.0 2.0 10 10
r 0.011943 1 2 cbr 1000 ------- 3 1.0 2.0 1 1
+ 0.012571 1 2 cbr 1000 ------- 3 1.0 2.0 11 11
- 0.012571 1 2 cbr 1000 ------- 3 1.0 2.0 11 11
r 0.013086 1 2 cbr 1000 ------- 3 1.0 2.0 2 2
+ 0.013714 1 2 cbr 1000 ------- 3 1.0 2.0 12 12
- 0.013714 1 2 cbr 1000 ------- 3 1.0 2.0 12 12
r 0.014229 1 2 cbr 1000 ------- 3 1.0 2.0 3 3
+ 0.014857 1 2 cbr 1000 ------- 3 1.0 2.0 13 13
- 0.014857 1 2 cbr 1000 ------- 3 1.0 2.0 13 13
r 0.015371 1 2 cbr 1000 ------- 3 1.0 2.0 4 4
+ 0.016 1 2 cbr 1000 ------- 3 1.0 2.0 14 14
- 0.016 1 2 cbr 1000 ------- 3 1.0 2.0 14 14
r 0.016514 1 2 cbr 1000 ------- 3 1.0 2.0 5 5
+ 0.017143 1 2 cbr 1000 ------- 3 1.0 2.0 15 15
- 0.017143 1 2 cbr 1000 ------- 3 1.0 2.0 15 15
r 0.017657 1 2 cbr 1000 ------- 3 1.0 2.0 6 6
+ 0.018286 1 2 cbr 1000 ------- 3 1.0 2.0 16 16
- 0.018286 1 2 cbr 1000 ------- 3 1.0 2.0 16 16
r 0.0188 1 2 cbr 1000 ------- 3 1.0 2.0 7 7
+ 0.019429 1 2 cbr 1000 ------- 3 1.0 2.0 17 17
- 0.019429 1 2 cbr 1000 ------- 3 1.0 2.0 17 17
r 0.019943 1 2 cbr 1000 ------- 3 1.0 2.0 8 8
+ 0.020571 1 2 cbr 1000 ------- 3 1.0 2.0 18 18
- 0.020571 1 2 cbr 1000 ------- 3 1.0 2.0 18 18
r 0.021086 1 2 cbr 1000 ------- 3 1.0 2.0 9 9
+ 0.021714 1 2 cbr 1000 ------- 3 1.0 2.0 19 19
- 0.021714 1 2 cbr 1000 ------- 3 1.0 2.0 19 19
r 0.022229 1 2 cbr 1000 ------- 3 1.0 2.0 10 10
+ 0.022857 1 2 cbr 1000 ------- 3 1.0 2.0 20 20
- 0.022857 1 2 cbr 1000 ------- 3 1.0 2.0 20 20
r 0.023371 1 2 cbr 1000 ------- 3 1.0 2.0 11 11
+ 0.024 1 2 cbr 1000 ------- 3 1.0 2.0 21 21
- 0.024 1 2 cbr 1000 ------- 3 1.0 2.0 21 21
r 0.024514 1 2 cbr 1000 ------- 3 1.0 2.0 12 12
+ 0.025143 1 2 cbr 1000 ------- 3 1.0 2.0 22 22
- 0.025143 1 2 cbr 1000 ------- 3 1.0 2.0 22 22
r 0.025657 1 2 cbr 1000 ------- 3 1.0 2.0 13 13
+ 0.026286 1 2 cbr 1000 ------- 3 1.0 2.0 23 23
- 0.026286 1 2 cbr 1000 ------- 3 1.0 2.0 23 23
r 0.0268 1 2 cbr 1000 ------- 3 1.0 2.0 14 14
+ 0.027429 1 2 cbr 1000 ------- 3 1.0 2.0 24 24
- 0.027429 1 2 cbr 1000 ------- 3 1.0 2.0 24 24
r 0.027943 1 2 cbr 1000 ------- 3 1.0 2.0 15 15
+ 0.028571 1 2 cbr 1000 ------- 3 1.0 2.0 25 25
- 0.028571 1 2 cbr 1000 ------- 3 1.0 2.0 25 25
r 0.029086 1 2 cbr 1000 ------- 3 1.0 2.0 16 16
+ 0.029714 1 2 cbr 1000 ------- 3 1.0 2.0 26 26
- 0.029714 1 2 cbr 1000 ------- 3 1.0 2.0 26 26
r 0.030229 1 2 cbr 1000 ------- 3 1.0 2.0 17 17
+ 0.030857 1 2 cbr 1000 ------- 3 1.0 2.0 27 27
- 0.030857 1 2 cbr 1000 ------- 3 1.0 2.0 27 27
r 0.031371 1 2 cbr 1000 ------- 3 1.0 2.0 18 18
+ 0.032 1 2 cbr 1000 ------- 3 1.0 2.0 28 28
- 0.032 1 2 cbr 1000 ------- 3 1.0 2.0 28 28
r 0.032514 1 2 cbr 1000 ------- 3 1.0 2.0 19 19
+ 0.033143 1 2 cbr 1000 ------- 3 1.0 2.0 29 29
- 0.033143 1 2 cbr 1000 ------- 3 1.0 2.0 29 29
r 0.033657 1 2 cbr 1000 ------- 3 1.0 2.0 20 20
+ 0.034286 1 2 cbr 1000 ------- 3 1.0 2.0 30 30
- 0.034286 1 2 cbr 1000 ------- 3 1.0 2.0 30 30
r 0.0348 1 2 cbr 1000 ------- 3 1.0 2.0 21 21
+ 0.035429 1 2 cbr 1000 ------- 3 1.0 2.0 31 31
- 0.035429 1 2 cbr 1000 ------- 3 1.0 2.0 31 31
r 0.035943 1 2 cbr 1000 ------- 3 1.0 2.0 22 22
+ 0.036571 1 2 cbr 1000 ------- 3 1.0 2.0 32 32
- 0.036571 1 2 cbr 1000 ------- 3 1.0 2.0 32 32
r 0.037086 1 2 cbr 1000 ------- 3 1.0 2.0 23 23
+ 0.037714 1 2 cbr 1000 ------- 3 1.0 2.0 33 33
- 0.037714 1 2 cbr 1000 ------- 3 1.0 2.0 33 33
r 0.038229 1 2 cbr 1000 ------- 3 1.0 2.0 24 24
+ 0.038857 1 2 cbr 1000 ------- 3 1.0 2.0 34 34
- 0.038857 1 2 cbr 1000 ------- 3 1.0 2.0 34 34
r 0.039371 1 2 cbr 1000 ------- 3 1.0 2.0 25 25
+ 0.04 1 2 cbr 1000 ------- 3 1.0 2.0 35 35
- 0.04 1 2 cbr 1000 ------- 3 1.0 2.0 35 35
r 0.040514 1 2 cbr 1000 ------- 3 1.0 2.0 26 26
+ 0.041143 1 2 cbr 1000 ------- 3 1.0 2.0 36 36
- 0.041143 1 2 cbr 1000 ------- 3 1.0 2.0 36 36
r 0.041657 1 2 cbr 1000 ------- 3 1.0 2.0 27 27
+ 0.042286 1 2 cbr 1000 ------- 3 1.0 2.0 37 37
- 0.042286 1 2 cbr 1000 ------- 3 1.0 2.0 37 37
r 0.0428 1 2 cbr 1000 ------- 3 1.0 2.0 28 28
+ 0.043429 1 2 cbr 1000 ------- 3 1.0 2.0 38 38
- 0.043429 1 2 cbr 1000 ------- 3 1.0 2.0 38 38
r 0.043943 1 2 cbr 1000 ------- 3 1.0 2.0 29 29
+ 0.044571 1 2 cbr 1000 ------- 3 1.0 2.0 39 39
- 0.044571 1 2 cbr 1000 ------- 3 1.0 2.0 39 39
r 0.045086 1 2 cbr 1000 ------- 3 1.0 2.0 30 30
+ 0.045714 1 2 cbr 1000 ------- 3 1.0 2.0 40 40
- 0.045714 1 2 cbr 1000 ------- 3 1.0 2.0 40 40
r 0.046229 1 2 cbr 1000 ------- 3 1.0 2.0 31 31
+ 0.046857 1 2 cbr 1000 ------- 3 1.0 2.0 41 41
- 0.046857 1 2 cbr 1000 ------- 3 1.0 2.0 41 41
r 0.047371 1 2 cbr 1000 ------- 3 1.0 2.0 32 32
+ 0.048 1 2 cbr 1000 ------- 3 1.0 2.0 42 42
- 0.048 1 2 cbr 1000 ------- 3 1.0 2.0 42 42
r 0.048514 1 2 cbr 1000 ------- 3 1.0 2.0 33 33
+ 0.049143 1 2 cbr 1000 ------- 3 1.0 2.0 43 43
- 0.049143 1 2 cbr 1000 ------- 3 1.0 2.0 43 43
r 0.049657 1 2 cbr 1000 ------- 3 1.0 2.0 34 34
+ 0.050286 1 2 cbr 1000 ------- 3 1.0 2.0 44 44
- 0.050286 1 2 cbr 1000 ------- 3 1.0 2.0 44 44
r 0.0508 1 2 cbr 1000 ------- 3 1.0 2.0 35 35
+ 0.051429 1 2 cbr 1000 ------- 3 1.0 2.0 45 45
- 0.051429 1 2 cbr 1000 ------- 3 1.0 2.0 45 45
r 0.051943 1 2 cbr 1000 ------- 3 1.0 2.0 36 36
+ 0.052571 1 2 cbr 1000 ------- 3 1.0 2.0 46 46
- 0.052571 1 2 cbr 1000 ------- 3 1.0 2.0 46 46
r 0.053086 1 2 cbr 1000 ------- 3 1.0 2.0 37 37
+ 0.053714 1 2 cbr 1000 ------- 3 1.0 2.0 47 47
- 0.053714 1 2 cbr 1000 ------- 3 1.0 2.0 47 47
r 0.054229 1 2 cbr 1000 ------- 3 1.0 2.0 38 38
+ 0.054857 1 2 cbr 1000 ------- 3 1.0 2.0 48 48
- 0.054857 1 2 cbr 1000 ------- 3 1.0 2.0 48 48
r 0.055371 1 2 cbr 1000 ------- 3 1.0 2.0 39 39
+ 0.056 1 2 cbr 1000 ------- 3 1.0 2.0 49 49
- 0.056 1 2 cbr 1000 ------- 3 1.0 2.0 49 49
r 0.056514 1 2 cbr 1000 ------- 3 1.0 2.0 40 40
+ 0.057143 1 2 cbr 1000 ------- 3 1.0 2.0 50 50
- 0.057143 1 2 cbr 1000 ------- 3 1.0 2.0 50 50
r 0.057657 1 2 cbr 1000 ------- 3 1.0 2.0 41 41
+ 0.058286 1 2 cbr 1000 ------- 3 1.0 2.0 51 51
- 0.058286 1 2 cbr 1000 ------- 3 1.0 2.0 51 51
r 0.0588 1 2 cbr 1000 ------- 3 1.0 2.0 42 42
+ 0.059429 1 2 cbr 1000 ------- 3 1.0 2.0 52 52
- 0.059429 1 2 cbr 1000 ------- 3 1.0 2.0 52 52
r 0.059943 1 2 cbr 1000 ------- 3 1.0 2.0 43 43
+ 0.060571 1 2 cbr 1000 ------- 3 1.0 2.0 53 53
- 0.060571 1 2 cbr 1000 ------- 3 1.0 2.0 53 53
r 0.061086 1 2 cbr 1000 ------- 3 1.0 2.0 44 44
+ 0.061714 1 2 cbr 1000 ------- 3 1.0 2.0 54 54
- 0.061714 1 2 cbr 1000 ------- 3 1.0 2.0 54 54
r 0.062229 1 2 cbr 1000 ------- 3 1.0 2.0 45 45
+ 0.062857 1 2 cbr 1000 ------- 3 1.0 2.0 55 55
- 0.062857 1 2 cbr 1000 ------- 3 1.0 2.0 55 55
r 0.063371 1 2 cbr 1000 ------- 3 1.0 2.0 46 46
+ 0.064 1 2 cbr 1000 ------- 3 1.0 2.0 56 56
- 0.064 1 2 cbr 1000 ------- 3 1.0 2.0 56 56
r 0.064514 1 2 cbr 1000 ------- 3 1.0 2.0 47 47
+ 0.065143 1 2 cbr 1000 ------- 3 1.0 2.0 57 57
- 0.065143 1 2 cbr 1000 ------- 3 1.0 2.0 57 57
r 0.065657 1 2 cbr 1000 ------- 3 1.0 2.0 48 48
+ 0.066286 1 2 cbr 1000 ------- 3 1.0 2.0 58 58
- 0.066286 1 2 cbr 1000 ------- 3 1.0 2.0 58 58
r 0.0668 1 2 cbr 1000 ------- 3 1.0 2.0 49 49
+ 0.067429 1 2 cbr 1000 ------- 3 1.0 2.0 59 59
- 0.067429 1 2 cbr 1000 ------- 3 1.0 2.0 59 59
r 0.067943 1 2 cbr 1000 ------- 3 1.0 2.0 50 50
+ 0.068571 1 2 cbr 1000 ------- 3 1.0 2.0 60 60
- 0.068571 1 2 cbr 1000 ------- 3 1.0 2.0 60 60
r 0.069086 1 2 cbr 1000 ------- 3 1.0 2.0 51 51
+ 0.069714 1 2 cbr 1000 ------- 3 1.0 2.0 61 61
- 0.069714 1 2 cbr 1000 ------- 3 1.0 2.0 61 61
r 0.070229 1 2 cbr 1000 ------- 3 1.0 2.0 52 52
+ 0.070857 1 2 cbr 1000 ------- 3 1.0 2.0 62 62
- 0.070857 1 2 cbr 1000 ------- 3 1.0 2.0 62 62
r 0.071371 1 2 cbr 1000 ------- 3 1.0 2.0 53 53
+ 0.072 1 2 cbr 1000 ------- 3 1.0 2.0 63 63
- 0.072 1 2 cbr 1000 ------- 3 1.0 2.0 63 63
r 0.072514 1 2 cbr 1000 ------- 3 1.0 2.0 54 54
+ 0.073143 1 2 cbr 1000 ------- 3 1.0 2.0 64 64
- 0.073143 1 2 cbr 1000 ------- 3 1.0 2.0 64 64
r 0.073657 1 2 cbr 1000 ------- 3 1.0 2.0 55 55
+ 0.074286 1 2 cbr 1000 ------- 3 1.0 2.0 65 65
- 0.074286 1 2 cbr 1000 ------- 3 1.0 2.0 65 65
r 0.0748 1 2 cbr 1000 ------- 3 1.0 2.0 56 56
+ 0.075429 1 2 cbr 1000 ------- 3 1.0 2.0 66 66
- 0.075429 1 2 cbr 1000 ------- 3 1.0 2.0 66 66
r 0.075943 1 2 cbr 1000 ------- 3 1.0 2.0 57 57
+ 0.076571 1 2 cbr 1000 ------- 3 1.0 2.0 67 67
- 0.076571 1 2 cbr 1000 ------- 3 1.0 2.0 67 67
r 0.077086 1 2 cbr 1000 ------- 3 1.0 2.0 58 58
+ 0.077714 1 2 cbr 1000 ------- 3 1.0 2.0 68 68
- 0.077714 1 2 cbr 1000 ------- 3 1.0 2.0 68 68
r 0.078229 1 2 cbr 1000 ------- 3 1.0 2.0 59 59
+ 0.078857 1 2 cbr 1000 ------- 3 1.0 2.0 69 69
- 0.078857 1 2 cbr 1000 ------- 3 1.0 2.0 69 69
r 0.079371 1 2 cbr 1000 ------- 3 1.0 2.0 60 60
+ 0.08 1 2 cbr 1000 ------- 3 1.0 2.0 70 70
- 0.08 1 2 cbr 1000 ------- 3 1.0 2.0 70 70
r 0.080514 1 2 cbr 1000 ------- 3 1.0 2.0 61 61
+ 0.081143 1 2 cbr 1000 ------- 3 1.0 2.0 71 71
- 0.081143 1 2 cbr 1000 ------- 3 1.0 2.0 71 71
r 0.081657 1 2 cbr 1000 ------- 3 1.0 2.0 62 62
+ 0.082286 1 2 cbr 1000 ------- 3 1.0 2.0 72 72
- 0.082286 1 2 cbr 1000 ------- 3 1.0 2.0 72 72
r 0.0828 1 2 cbr 1000 ------- 3 1.0 2.0 63 63
+ 0.083429 1 2 cbr 1000 ------- 3 1.0 2.0 73 73
- 0.083429 1 2 cbr 1000 ------- 3 1.0 2.0 73 73
r 0.083943 1 2 cbr 1000 ------- 3 1.0 2.0 64 64
+ 0.084571 1 2 cbr 1000 ------- 3 1.0 2.0 74 74
- 0.084571 1 2 cbr 1000 ------- 3 1.0 2.0 74 74
r 0.085086 1 2 cbr 1000 ------- 3 1.0 2.0 65 65
+ 0.085714 1 2 cbr 1000 ------- 3 1.0 2.0 75 75
- 0.085714 1 2 cbr 1000 ------- 3 1.0 2.0 75 75
r 0.086229 1 2 cbr 1000 ------- 3 1.0 2.0 66 66
+ 0.086857 1 2 cbr 1000 ------- 3 1.0 2.0 76 76
- 0.086857 1 2 cbr 1000 ------- 3 1.0 2.0 76 76
r 0.087371 1 2 cbr 1000 ------- 3 1.0 2.0 67 67
+ 0.088 1 2 cbr 1000 ------- 3 1.0 2.0 77 77
- 0.088 1 2 cbr 1000 ------- 3 1.0 2.0 77 77
r 0.088514 1 2 cbr 1000 ------- 3 1.0 2.0 68 68
+ 0.089143 1 2 cbr 1000 ------- 3 1.0 2.0 78 78
- 0.089143 1 2 cbr 1000 ------- 3 1.0 2.0 78 78
r 0.089657 1 2 cbr 1000 ------- 3 1.0 2.0 69 69
+ 0.090286 1 2 cbr 1000 ------- 3 1.0 2.0 79 79
- 0.090286 1 2 cbr 1000 ------- 3 1.0 2.0 79 79
r 0.0908 1 2 cbr 1000 ------- 3 1.0 2.0 70 70
+ 0.091429 1 2 cbr 1000 ------- 3 1.0 2.0 80 80
- 0.091429 1 2 cbr 1000 ------- 3 1.0 2.0 80 80
r 0.091943 1 2 cbr 1000 ------- 3 1.0 2.0 71 71
+ 0.092571 1 2 cbr 1000 ------- 3 1.0 2.0 81 81
- 0.092571 1 2 cbr 1000 ------- 3 1.0 2.0 81 81
r 0.093086 1 2 cbr 1000 ------- 3 1.0 2.0 72 72
+ 0.093714 1 2 cbr 1000 ------- 3 1.0 2.0 82 82
- 0.093714 1 2 cbr 1000 ------- 3 1.0 2.0 82 82
r 0.094229 1 2 cbr 1000 ------- 3 1.0 2.0 73 73
+ 0.094857 1 2 cbr 1000 ------- 3 1.0 2.0 83 83
- 0.094857 1 2 cbr 1000 ------- 3 1.0 2.0 83 83
r 0.095371 1 2 cbr 1000 ------- 3 1.0 2.0 74 74
+ 0.096 1 2 cbr 1000 ------- 3 1.0 2.0 84 84
- 0.096 1 2 cbr 1000 ------- 3 1.0 2.0 84 84
r 0.096514 1 2 cbr 1000 ------- 3 1.0 2.0 75 75
+ 0.097143 1 2 cbr 1000 ------- 3 1.0 2.0 85 85
- 0.097143 1 2 cbr 1000 ------- 3 1.0 2.0 85 85
r 0.097657 1 2 cbr 1000 ------- 3 1.0 2.0 76 76
+ 0.098286 1 2 cbr 1000 ------- 3 1.0 2.0 86 86
- 0.098286 1 2 cbr 1000 ------- 3 1.0 2.0 86 86
r 0.0988 1 2 cbr 1000 ------- 3 1.0 2.0 77 77
+ 0.099429 1 2 cbr 1000 ------- 3 1.0 2.0 87 87
- 0.099429 1 2 cbr 1000 ------- 3 1.0 2.0 87 87
r 0.099943 1 2 cbr 1000 ------- 3 1.0 2.0 78 78
+ 0.100571 1 2 cbr 1000 ------- 3 1.0 2.0 88 88
- 0.100571 1 2 cbr 1000 ------- 3 1.0 2.0 88 88
r 0.101086 1 2 cbr 1000 ------- 3 1.0 2.0 79 79
+ 0.101714 1 2 cbr 1000 ------- 3 1.0 2.0 89 89
- 0.101714 1 2 cbr 1000 ------- 3 1.0 2.0 89 89
r 0.102229 1 2 cbr 1000 ------- 3 1.0 2.0 80 80
+ 0.102857 1 2 cbr 1000 ------- 3 1.0 2.0 90 90
- 0.102857 1 2 cbr 1000 ------- 3 1.0 2.0 90 90
r 0.103371 1 2 cbr 1000 ------- 3 1.0 2.0 81 81
+ 0.104 1 2 cbr 1000 ------- 3 1.0 2.0 91 91
- 0.104 1 2 cbr 1000 ------- 3 1.0 2.0 91 91
r 0.104514 1 2 cbr 1000 ------- 3 1.0 2.0 82 82
+ 0.105143 1 2 cbr 1000 ------- 3 1.0 2.0 92 92
- 0.105143 1 2 cbr 1000 ------- 3 1.0 2.0 92 92
r 0.105657 1 2 cbr 1000 ------- 3 1.0 2.0 83 83
+ 0.106286 1 2 cbr 1000 ------- 3 1.0 2.0 93 93
- 0.106286 1 2 cbr 1000 ------- 3 1.0 2.0 93 93
r 0.1068 1 2 cbr 1000 ------- 3 1.0 2.0 84 84
+ 0.107429 1 2 cbr 1000 ------- 3 1.0 2.0 94 94
- 0.107429 1 2 cbr 1000 ------- 3 1.0 2.0 94 94
r 0.107943 1 2 cbr 1000 ------- 3 1.0 2.0 85 85
+ 0.108571 1 2 cbr 1000 ------- 3 1.0 2.0 95 95
- 0.108571 1 2 cbr 1000 ------- 3 1.0 2.0 95 95
r 0.109086 1 2 cbr 1000 ------- 3 1.0 2.0 86 86
+ 0.109714 1 2 cbr 1000 ------- 3 1.0 2.0 96 96
- 0.109714 1 2 cbr 1000 ------- 3 1.0 2.0 96 96
r 0.110229 1 2 cbr 1000 ------- 3 1.0 2.0 87 87
+ 0.110857 1 2 cbr 1000 ------- 3 1.0 2.0 97 97
- 0.110857 1 2 cbr 1000 ------- 3 1.0 2.0 97 97
r 0.111371 1 2 cbr 1000 ------- 3 1.0 2.0 88 88
+ 0.112 1 2 cbr 1000 ------- 3 1.0 2.0 98 98
- 0.112 1 2 cbr 1000 ------- 3 1.0 2.0 98 98
r 0.112514 1 2 cbr 1000 ------- 3 1.0 2.0 89 89
+ 0.113143 1 2 cbr 1000 ------- 3 1.0 2.0 99 99
- 0.113143 1 2 cbr 1000 ------- 3 1.0 2.0 99 99
r 0.113657 1 2 cbr 1000 ------- 3 1.0 2.0 90 90
+ 0.114286 1 2 cbr 1000 ------- 3 1.0 2.0 100 100
- 0.114286 1 2 cbr 1000 ------- 3 1.0 2.0 100 100
r 0.1148 1 2 cbr 1000 ------- 3 1.0 2.0 91 91
+ 0.115429 1 2 cbr 1000 ------- 3 1.0 2.0 101 101
- 0.115429 1 2 cbr 1000 ------- 3 1.0 2.0 101 101
r 0.115943 1 2 cbr 1000 ------- 3 1.0 2.0 92 92
+ 0.116571 1 2 cbr 1000 ------- 3 1.0 2.0 102 102
- 0.116571 1 2 cbr 1000 ------- 3 1.0 2.0 102 102
r 0.117086 1 2 cbr 1000 ------- 3 1.0 2.0 93 93
+ 0.117714 1 2 cbr 1000 ------- 3 1.0 2.0 103 103
- 0.117714 1 2 cbr 1000 ------- 3 1.0 2.0 103 103
r 0.118229 1 2 cbr 1000 ------- 3 1.0 2.0 94 94
+ 0.118857 1 2 cbr 1000 ------- 3 1.0 2.0 104 104
- 0.118857 1 2 cbr 1000 ------- 3 1.0 2.0 104 104
r 0.119371 1 2 cbr 1000 ------- 3 1.0 2.0 95 95
+ 0.12 1 2 cbr 1000 ------- 3 1.0 2.0 105 105
- 0.12 1 2 cbr 1000 ------- 3 1.0 2.0 105 105
r 0.120514 1 2 cbr 1000 ------- 3 1.0 2.0 96 96
+ 0.121143 1 2 cbr 1000 ------- 3 1.0 2.0 106 106
- 0.121143 1 2 cbr 1000 ------- 3 1.0 2.0 106 106
r 0.121657 1 2 cbr 1000 ------- 3 1.0 2.0 97 97
+ 0.122286 1 2 cbr 1000 ------- 3 1.0 2.0 107 107
- 0.122286 1 2 cbr 1000 ------- 3 1.0 2.0 107 107
r 0.1228 1 2 cbr 1000 ------- 3 1.0 2.0 98 98
+ 0.123429 1 2 cbr 1000 ------- 3 1.0 2.0 108 108
- 0.123429 1 2 cbr 1000 ------- 3 1.0 2.0 108 108
r 0.123943 1 2 cbr 1000 ------- 3 1.0 2.0 99 99
+ 0.124571 1 2 cbr 1000 ------- 3 1.0 2.0 109 109
- 0.124571 1 2 cbr 1000 ------- 3 1.0 2.0 109 109
r 0.125086 1 2 cbr 1000 ------- 3 1.0 2.0 100 100
+ 0.125714 1 2 cbr 1000 ------- 3 1.0 2.0 110 110
- 0.125714 1 2 cbr 1000 ------- 3 1.0 2.0 110 110
r 0.126229 1 2 cbr 1000 ------- 3 1.0 2.0 101 101
+ 0.126857 1 2 cbr 1000 ------- 3 1.0 2.0 111 111
- 0.126857 1 2 cbr 1000 ------- 3 1.0 2.0 111 111
r 0.127371 1 2 cbr 1000 ------- 3 1.0 2.0 102 102
+ 0.128 1 2 cbr 1000 ------- 3 1.0 2.0 112 112
- 0.128 1 2 cbr 1000 ------- 3 1.0 2.0 112 112
r 0.128514 1 2 cbr 1000 ------- 3 1.0 2.0 103 103
+ 0.129143 1 2 cbr 1000 ------- 3 1.0 2.0 113 113
- 0.129143 1 2 cbr 1000 ------- 3 1.0 2.0 113 113
r 0.129657 1 2 cbr 1000 ------- 3 1.0 2.0 104 104
+ 0.130286 1 2 cbr 1000 ------- 3 1.0 2.0 114 114
- 0.130286 1 2 cbr 1000 ------- 3 1.0 2.0 114 114
r 0.1308 1 2 cbr 1000 ------- 3 1.0 2.0 105 105
+ 0.131429 1 2 cbr 1000 ------- 3 1.0 2.0 115 115
- 0.131429 1 2 cbr 1000 ------- 3 1.0 2.0 115 115
r 0.131943 1 2 cbr 1000 ------- 3 1.0 2.0 106 106
+ 0.132571 1 2 cbr 1000 ------- 3 1.0 2.0 116 116
- 0.132571 1 2 cbr 1000 ------- 3 1.0 2.0 116 116
r 0.133086 1 2 cbr 1000 ------- 3 1.0 2.0 107 107
+ 0.133714 1 2 cbr 1000 ------- 3 1.0 2.0 117 117
- 0.133714 1 2 cbr 1000 ------- 3 1.0 2.0 117 117
r 0.134229 1 2 cbr 1000 ------- 3 1.0 2.0 108 108
+ 0.134857 1 2 cbr 1000 ------- 3 1.0 2.0 118 118
- 0.134857 1 2 cbr 1000 ------- 3 1.0 2.0 118 118
r 0.135371 1 2 cbr 1000 ------- 3 1.0 2.0 109 109
+ 0.136 1 2 cbr 1000 ------- 3 1.0 2.0 119 119
- 0.136 1 2 cbr 1000 ------- 3 1.0 2.0 119 119
r 0.136514 1 2 cbr 1000 ------- 3 1.0 2.0 110 110
+ 0.137143 1 2 cbr 1000 ------- 3 1.0 2.0 120 120
- 0.137143 1 2 cbr 1000 ------- 3 1.0 2.0 120 120
r 0.137657 1 2 cbr 1000 ------- 3 1.0 2.0 111 111
+ 0.138286 1 2 cbr 1000 ------- 3 1.0 2.0 121 121
- 0.138286 1 2 cbr 1000 ------- 3 1.0 2.0 121 121
r 0.1388 1 2 cbr 1000 ------- 3 1.0 2.0 112 112
+ 0.139429 1 2 cbr 1000 ------- 3 1.0 2.0 122 122
- 0.139429 1 2 cbr 1000 ------- 3 1.0 2.0 122 122
r 0.139943 1 2 cbr 1000 ------- 3 1.0 2.0 113 113
+ 0.140571 1 2 cbr 1000 ------- 3 1.0 2.0 123 123
- 0.140571 1 2 cbr 1000 ------- 3 1.0 2.0 123 123
r 0.141086 1 2 cbr 1000 ------- 3 1.0 2.0 114 114
+ 0.141714 1 2 cbr 1000 ------- 3 1.0 2.0 124 124
- 0.141714 1 2 cbr 1000 ------- 3 1.0 2.0 124 124
r 0.142229 1 2 cbr 1000 ------- 3 1.0 2.0 115 115
+ 0.142857 1 2 cbr 1000 ------- 3 1.0 2.0 125 125
- 0.142857 1 2 cbr 1000 ------- 3 1.0 2.0 125 125
r 0.143371 1 2 cbr 1000 ------- 3 1.0 2.0 116 116
+ 0.144 1 2 cbr 1000 ------- 3 1.0 2.0 126 126
- 0.144 1 2 cbr 1000 ------- 3 1.0 2.0 126 126
r 0.144514 1 2 cbr 1000 ------- 3 1.0 2.0 117 117
+ 0.145143 1 2 cbr 1000 ------- 3 1.0 2.0 127 127
- 0.145143 1 2 cbr 1000 ------- 3 1.0 2.0 127 127
r 0.145657 1 2 cbr 1000 ------- 3 1.0 2.0 118 118
+ 0.146286 1 2 cbr 1000 ------- 3 1.0 2.0 128 128
- 0.146286 1 2 cbr 1000 ------- 3 1.0 2.0 128 128
r 0.1468 1 2 cbr 1000 ------- 3 1.0 2.0 119 119
+ 0.147429 1 2 cbr 1000 ------- 3 1.0 2.0 129 129
- 0.147429 1 2 cbr 1000 ------- 3 1.0 2.0 129 129
r 0.147943 1 2 cbr 1000 ------- 3 1.0 2.0 120 120
+ 0.148571 1 2 cbr 1000 ------- 3 1.0 2.0 130 130
- 0.148571 1 2 cbr 1000 ------- 3 1.0 2.0 130 130
r 0.149086 1 2 cbr 1000 ------- 3 1.0 2.0 121 121
+ 0.149714 1 2 cbr 1000 ------- 3 1.0 2.0 131 131
- 0.149714 1 2 cbr 1000 ------- 3 1.0 2.0 131 131
r 0.150229 1 2 cbr 1000 ------- 3 1.0 2.0 122 122
+ 0.150857 1 2 cbr 1000 ------- 3 1.0 2.0 132 132
- 0.150857 1 2 cbr 1000 ------- 3 1.0 2.0 132 132
r 0.151371 1 2 cbr 1000 ------- 3 1.0 2.0 123 123
+ 0.152 1 2 cbr 1000 ------- 3 1.0 2.0 133 133
- 0.152 1 2 cbr 1000 ------- 3 1.0 2.0 133 133
r 0.152514 1 2 cbr 1000 ------- 3 1.0 2.0 124 124
+ 0.153143 1 2 cbr 1000 ------- 3 1.0 2.0 134 134
- 0.153143 1 2 cbr 1000 ------- 3 1.0 2.0 134 134
r 0.153657 1 2 cbr 1000 ------- 3 1.0 2.0 125 125
+ 0.154286 1 2 cbr 1000 ------- 3 1.0 2.0 135 135
- 0.154286 1 2 cbr 1000 ------- 3 1.0 2.0 135 135
r 0.1548 1 2 cbr 1000 ------- 3 1.0 2.0 126 126
+ 0.155429 1 2 cbr 1000 ------- 3 1.0 2.0 136 136
- 0.155429 1 2 cbr 1000 ------- 3 1.0 2.0 136 136
r 0.155943 1 2 cbr 1000 ------- 3 1.0 2.0 127 127
+ 0.156571 1 2 cbr 1000 ------- 3 1.0 2.0 137 137
- 0.156571 1 2 cbr 1000 ------- 3 1.0 2.0 137 137
r 0.157086 1 2 cbr 1000 ------- 3 1.0 2.0 128 128
+ 0.157714 1 2 cbr 1000 ------- 3 1.0 2.0 138 138
- 0.157714 1 2 cbr 1000 ------- 3 1.0 2.0 138 138
r 0.158229 1 2 cbr 1000 ------- 3 1.0 2.0 129 129
+ 0.158857 1 2 cbr 1000 ------- 3 1.0 2.0 139 139
- 0.158857 1 2 cbr 1000 ------- 3 1.0 2.0 139 139
r 0.159371 1 2 cbr 1000 ------- 3 1.0 2.0 130 130
+ 0.16 1 2 cbr 1000 ------- 3 1.0 2.0 140 140
- 0.16 1 2 cbr 1000 ------- 3 1.0 2.0 140 140
r 0.160514 1 2 cbr 1000 ------- 3 1.0 2.0 131 131
+ 0.161143 1 2 cbr 1000 ------- 3 1.0 2.0 141 141
- 0.161143 1 2 cbr 1000 ------- 3 1.0 2.0 141 141
r 0.161657 1 2 cbr 1000 ------- 3 1.0 2.0 132 132
+ 0.162286 1 2 cbr 1000 ------- 3 1.0 2.0 142 142
- 0.162286 1 2 cbr 1000 ------- 3 1.0 2.0 142 142
r 0.1628 1 2 cbr 1000 ------- 3 1.0 2.0 133 133
+ 0.163429 1 2 cbr 1000 ------- 3 1.0 2.0 143 143
- 0.163429 1 2 cbr 1000 ------- 3 1.0 2.0 143 143
r 0.163943 1 2 cbr 1000 ------- 3 1.0 2.0 134 134
+ 0.164571 1 2 cbr 1000 ------- 3 1.0 2.0 144 144
- 0.164571 1 2 cbr 1000 ------- 3 1.0 2.0 144 144
r 0.165086 1 2 cbr 1000 ------- 3 1.0 2.0 135 135
+ 0.165714 1 2 cbr 1000 ------- 3 1.0 2.0 145 145
- 0.165714 1 2 cbr 1000 ------- 3 1.0 2.0 145 145
r 0.166229 1 2 cbr 1000 ------- 3 1.0 2.0 136 136
+ 0.166857 1 2 cbr 1000 ------- 3 1.0 2.0 146 146
- 0.166857 1 2 cbr 1000 ------- 3 1.0 2.0 146 146
r 0.167371 1 2 cbr 1000 ------- 3 1.0 2.0 137 137
+ 0.168 1 2 cbr 1000 ------- 3 1.0 2.0 147 147
- 0.168 1 2 cbr 1000 ------- 3 1.0 2.0 147 147
r 0.168514 1 2 cbr 1000 ------- 3 1.0 2.0 138 138
+ 0.169143 1 2 cbr 1000 ------- 3 1.0 2.0 148 148
- 0.169143 1 2 cbr 1000 ------- 3 1.0 2.0 148 148
r 0.169657 1 2 cbr 1000 ------- 3 1.0 2.0 139 139
+ 0.170286 1 2 cbr 1000 ------- 3 1.0 2.0 149 149
- 0.170286 1 2 cbr 1000 ------- 3 1.0 2.0 149 149
r 0.1708 1 2 cbr 1000 ------- 3 1.0 2.0 140 140
+ 0.171429 1 2 cbr 1000 ------- 3 1.0 2.0 150 150
- 0.171429 1 2 cbr 1000 ------- 3 1.0 2.0 150 150
r 0.171943 1 2 cbr 1000 ------- 3 1.0 2.0 141 141
+ 0.172571 1 2 cbr 1000 ------- 3 1.0 2.0 151 151
- 0.172571 1 2 cbr 1000 ------- 3 1.0 2.0 151 151
r 0.173086 1 2 cbr 1000 ------- 3 1.0 2.0 142 142
+ 0.173714 1 2 cbr 1000 ------- 3 1.0 2.0 152 152
- 0.173714 1 2 cbr 1000 ------- 3 1.0 2.0 152 152
r 0.174229 1 2 cbr 1000 ------- 3 1.0 2.0 143 143
+ 0.174857 1 2 cbr 1000 ------- 3 1.0 2.0 153 153
- 0.174857 1 2 cbr 1000 ------- 3 1.0 2.0 153 153
r 0.175371 1 2 cbr 1000 ------- 3 1.0 2.0 144 144
+ 0.176 1 2 cbr 1000 ------- 3 1.0 2.0 154 154
- 0.176 1 2 cbr 1000 ------- 3 1.0 2.0 154 154
r 0.176514 1 2 cbr 1000 ------- 3 1.0 2.0 145 145
+ 0.177143 1 2 cbr 1000 ------- 3 1.0 2.0 155 155
- 0.177143 1 2 cbr 1000 ------- 3 1.0 2.0 155 155
r 0.177657 1 2 cbr 1000 ------- 3 1.0 2.0 146 146
+ 0.178286 1 2 cbr 1000 ------- 3 1.0 2.0 156 156
- 0.178286 1 2 cbr 1000 ------- 3 1.0 2.0 156 156
r 0.1788 1 2 cbr 1000 ------- 3 1.0 2.0 147 147
+ 0.179429 1 2 cbr 1000 ------- 3 1.0 2.0 157 157
- 0.179429 1 2 cbr 1000 ------- 3 1.0 2.0 157 157
r 0.179943 1 2 cbr 1000 ------- 3 1.0 2.0 148 148
+ 0.180571 1 2 cbr 1000 ------- 3 1.0 2.0 158 158
- 0.180571 1 2 cbr 1000 ------- 3 1.0 2.0 158 158
r 0.181086 1 2 cbr 1000 ------- 3 1.0 2.0 149 149
+ 0.181714 1 2 cbr 1000 ------- 3 1.0 2.0 159 159
- 0.181714 1 2 cbr 1000 ------- 3 1.0 2.0 159 159
r 0.182229 1 2 cbr 1000 ------- 3 1.0 2.0 150 150
+ 0.182857 1 2 cbr 1000 ------- 3 1.0 2.0 160 160
- 0.182857 1 2 cbr 1000 ------- 3 1.0 2.0 160 160
r 0.183371 1 2 cbr 1000 ------- 3 1.0 2.0 151 151
+ 0.184 1 2 cbr 1000 ------- 3 1.0 2.0 161 161
- 0.184 1 2 cbr 1000 ------- 3 1.0 2.0 161 161
r 0.184514 1 2 cbr 1000 ------- 3 1.0 2.0 152 152
+ 0.185143 1 2 cbr 1000 ------- 3 1.0 2.0 162 162
- 0.185143 1 2 cbr 1000 ------- 3 1.0 2.0 162 162
r 0.185657 1 2 cbr 1000 ------- 3 1.0 2.0 153 153
+ 0.186286 1 2 cbr 1000 ------- 3 1.0 2.0 163 163
- 0.186286 1 2 cbr 1000 ------- 3 1.0 2.0 163 163
r 0.1868 1 2 cbr 1000 ------- 3 1.0 2.0 154 154
+ 0.187429 1 2 cbr 1000 ------- 3 1.0 2.0 164 164
- 0.187429 1 2 cbr 1000 ------- 3 1.0 2.0 164 164
r 0.187943 1 2 cbr 1000 ------- 3 1.0 2.0 155 155
+ 0.188571 1 2 cbr 1000 ------- 3 1.0 2.0 165 165
- 0.188571 1 2 cbr 1000 ------- 3 1.0 2.0 165 165
r 0.189086 1 2 cbr 1000 ------- 3 1.0 2.0 156 156
+ 0.189714 1 2 cbr 1000 ------- 3 1.0 2.0 166 166
- 0.189714 1 2 cbr 1000 ------- 3 1.0 2.0 166 166
r 0.190229 1 2 cbr 1000 ------- 3 1.0 2.0 157 157
+ 0.190857 1 2 cbr 1000 ------- 3 1.0 2.0 167 167
- 0.190857 1 2 cbr 1000 ------- 3 1.0 2.0 167 167
r 0.191371 1 2 cbr 1000 ------- 3 1.0 2.0 158 158
+ 0.192 1 2 cbr 1000 ------- 3 1.0 2.0 168 168
- 0.192 1 2 cbr 1000 ------- 3 1.0 2.0 168 168
r 0.192514 1 2 cbr 1000 ------- 3 1.0 2.0 159 159
+ 0.193143 1 2 cbr 1000 ------- 3 1.0 2.0 169 169
- 0.193143 1 2 cbr 1000 ------- 3 1.0 2.0 169 169
r 0.193657 1 2 cbr 1000 ------- 3 1.0 2.0 160 160
+ 0.194286 1 2 cbr 1000 ------- 3 1.0 2.0 170 170
- 0.194286 1 2 cbr 1000 ------- 3 1.0 2.0 170 170
r 0.1948 1 2 cbr 1000 ------- 3 1.0 2.0 161 161
+ 0.195429 1 2 cbr 1000 ------- 3 1.0 2.0 171 171
- 0.195429 1 2 cbr 1000 ------- 3 1.0 2.0 171 171
r 0.195943 1 2 cbr 1000 ------- 3 1.0 2.0 162 162
+ 0.196571 1 2 cbr 1000 ------- 3 1.0 2.0 172 172
- 0.196571 1 2 cbr 1000 ------- 3 1.0 2.0 172 172
r 0.197086 1 2 cbr 1000 ------- 3 1.0 2.0 163 163
+ 0.197714 1 2 cbr 1000 ------- 3 1.0 2.0 173 173
- 0.197714 1 2 cbr 1000 ------- 3 1.0 2.0 173 173
r 0.198229 1 2 cbr 1000 ------- 3 1.0 2.0 164 164
+ 0.198857 1 2 cbr 1000 ------- 3 1.0 2.0 174 174
- 0.198857 1 2 cbr 1000 ------- 3 1.0 2.0 174 174
r 0.199371 1 2 cbr 1000 ------- 3 1.0 2.0 165 165
+ 0.2 1 2 cbr 1000 ------- 3 1.0 2.0 175 175
- 0.2 1 2 cbr 1000 ------- 3 1.0 2.0 175 175
r 0.200514 1 2 cbr 1000 ------- 3 1.0 2.0 166 166
+ 0.201143 1 2 cbr 1000 ------- 3 1.0 2.0 176 176
- 0.201143 1 2 cbr 1000 ------- 3 1.0 2.0 176 176
r 0.201657 1 2 cbr 1000 ------- 3 1.0 2.0 167 167
+ 0.202286 1 2 cbr 1000 ------- 3 1.0 2.0 177 177
- 0.202286 1 2 cbr 1000 ------- 3 1.0 2.0 177 177
r 0.2028 1 2 cbr 1000 ------- 3 1.0 2.0 168 168
+ 0.203429 1 2 cbr 1000 ------- 3 1.0 2.0 178 178
- 0.203429 1 2 cbr 1000 ------- 3 1.0 2.0 178 178
r 0.203943 1 2 cbr 1000 ------- 3 1.0 2.0 169 169
+ 0.204571 1 2 cbr 1000 ------- 3 1.0 2.0 179 179
- 0.204571 1 2 cbr 1000 ------- 3 1.0 2.0 179 179
r 0.205086 1 2 cbr 1000 ------- 3 1.0 2.0 170 170
+ 0.205714 1 2 cbr 1000 ------- 3 1.0 2.0 180 180
- 0.205714 1 2 cbr 1000 ------- 3 1.0 2.0 180 180
r 0.206229 1 2 cbr 1000 ------- 3 1.0 2.0 171 171
+ 0.206857 1 2 cbr 1000 ------- 3 1.0 2.0 181 181
- 0.206857 1 2 cbr 1000 ------- 3 1.0 2.0 181 181
r 0.207371 1 2 cbr 1000 ------- 3 1.0 2.0 172 172
+ 0.208 1 2 cbr 1000 ------- 3 1.0 2.0 182 182
- 0.208 1 2 cbr 1000 ------- 3 1.0 2.0 182 182
r 0.208514 1 2 cbr 1000 ------- 3 1.0 2.0 173 173
+ 0.209143 1 2 cbr 1000 ------- 3 1.0 2.0 183 183
- 0.209143 1 2 cbr 1000 ------- 3 1.0 2.0 183 183
r 0.209657 1 2 cbr 1000 ------- 3 1.0 2.0 174 174
+ 0.210286 1 2 cbr 1000 ------- 3 1.0 2.0 184 184
- 0.210286 1 2 cbr 1000 ------- 3 1.0 2.0 184 184
r 0.2108 1 2 cbr 1000 ------- 3 1.0 2.0 175 175
+ 0.211429 1 2 cbr 1000 ------- 3 1.0 2.0 185 185
- 0.211429 1 2 cbr 1000 ------- 3 1.0 2.0 185 185
r 0.211943 1 2 cbr 1000 ------- 3 1.0 2.0 176 176
+ 0.212571 1 2 cbr 1000 ------- 3 1.0 2.0 186 186
- 0.212571 1 2 cbr 1000 ------- 3 1.0 2.0 186 186
r 0.213086 1 2 cbr 1000 ------- 3 1.0 2.0 177 177
+ 0.213714 1 2 cbr 1000 ------- 3 1.0 2.0 187 187
- 0.213714 1 2 cbr 1000 ------- 3 1.0 2.0 187 187
r 0.214229 1 2 cbr 1000 ------- 3 1.0 2.0 178 178
+ 0.214857 1 2 cbr 1000 ------- 3 1.0 2.0 188 188
- 0.214857 1 2 cbr 1000 ------- 3 1.0 2.0 188 188
r 0.215371 1 2 cbr 1000 ------- 3 1.0 2.0 179 179
+ 0.216 1 2 cbr 1000 ------- 3 1.0 2.0 189 189
- 0.216 1 2 cbr 1000 ------- 3 1.0 2.0 189 189
r 0.216514 1 2 cbr 1000 ------- 3 1.0 2.0 180 180
+ 0.217143 1 2 cbr 1000 ------- 3 1.0 2.0 190 190
- 0.217143 1 2 cbr 1000 ------- 3 1.0 2.0 190 190
r 0.217657 1 2 cbr 1000 ------- 3 1.0 2.0 181 181
+ 0.218286 1 2 cbr 1000 ------- 3 1.0 2.0 191 191
- 0.218286 1 2 cbr 1000 ------- 3 1.0 2.0 191 191
r 0.2188 1 2 cbr 1000 ------- 3 1.0 2.0 182 182
+ 0.219429 1 2 cbr 1000 ------- 3 1.0 2.0 192 192
- 0.219429 1 2 cbr 1000 ------- 3 1.0 2.0 192 192
r 0.219943 1 2 cbr 1000 ------- 3 1.0 2.0 183 183
+ 0.220571 1 2 cbr 1000 ------- 3 1.0 2.0 193 193
- 0.220571 1 2 cbr 1000 ------- 3 1.0 2.0 193 193
r 0.221086 1 2 cbr 1000 ------- 3 1.0 2.0 184 184
+ 0.221714 1 2 cbr 1000 ------- 3 1.0 2.0 194 194
- 0.221714 1 2 cbr 1000 ------- 3 1.0 2.0 194 194
r 0.222229 1 2 cbr 1000 ------- 3 1.0 2.0 185 185
+ 0.222857 1 2 cbr 1000 ------- 3 1.0 2.0 195 195
- 0.222857 1 2 cbr 1000 ------- 3 1.0 2.0 195 195
r 0.223371 1 2 cbr 1000 ------- 3 1.0 2.0 186 186
+ 0.224 1 2 cbr 1000 ------- 3 1.0 2.0 196 196
- 0.224 1 2 cbr 1000 ------- 3 1.0 2.0 196 196
r 0.224514 1 2 cbr 1000 ------- 3 1.0 2.0 187 187
+ 0.225143 1 2 cbr 1000 ------- 3 1.0 2.0 197 197
- 0.225143 1 2 cbr 1000 ------- 3 1.0 2.0 197 197
r 0.225657 1 2 cbr 1000 ------- 3 1.0 2.0 188 188
+ 0.226286 1 2 cbr 1000 ------- 3 1.0 2.0 198 198
- 0.226286 1 2 cbr 1000 ------- 3 1.0 2.0 198 198
r 0.2268 1 2 cbr 1000 ------- 3 1.0 2.0 189 189
+ 0.227429 1 2 cbr 1000 ------- 3 1.0 2.0 199 199
- 0.227429 1 2 cbr 1000 ------- 3 1.0 2.0 199 199
r 0.227943 1 2 cbr 1000 ------- 3 1.0 2.0 190 190
+ 0.228571 1 2 cbr 1000 ------- 3 1.0 2.0 200 200
- 0.228571 1 2 cbr 1000 ------- 3 1.0 2.0 200 200
r 0.229086 1 2 cbr 1000 ------- 3 1.0 2.0 191 191
+ 0.229714 1 2 cbr 1000 ------- 3 1.0 2.0 201 201
- 0.229714 1 2 cbr 1000 ------- 3 1.0 2.0 201 201
r 0.230229 1 2 cbr 1000 ------- 3 1.0 2.0 192 192
+ 0.230857 1 2 cbr 1000 ------- 3 1.0 2.0 202 202
- 0.230857 1 2 cbr 1000 ------- 3 1.0 2.0 202 202
r 0.231371 1 2 cbr 1000 ------- 3 1.0 2.0 193 193
+ 0.232 1 2 cbr 1000 ------- 3 1.0 2.0 203 203
- 0.232 1 2 cbr 1000 ------- 3 1.0 2.0 203 203
r 0.232514 1 2 cbr 1000 ------- 3 1.0 2.0 194 194
+ 0.233143 1 2 cbr 1000 ------- 3 1.0 2.0 204 204
- 0.233143 1 2 cbr 1000 ------- 3 1.0 2.0 204 204
r 0.233657 1 2 cbr 1000 ------- 3 1.0 2.0 195 195
+ 0.234286 1 2 cbr 1000 ------- 3 1.0 2.0 205 205
- 0.234286 1 2 cbr 1000 ------- 3 1.0 2.0 205 205
r 0.2348 1 2 cbr 1000 ------- 3 1.0 2.0 196 196
+ 0.235429 1 2 cbr 1000 ------- 3 1.0 2.0 206 206
- 0.235429 1 2 cbr 1000 ------- 3 1.0 2.0 206 206
r 0.235943 1 2 cbr 1000 ------- 3 1.0 2.0 197 197
+ 0.236571 1 2 cbr 1000 ------- 3 1.0 2.0 207 207
- 0.236571 1 2 cbr 1000 ------- 3 1.0 2.0 207 207
r 0.237086 1 2 cbr 1000 ------- 3 1.0 2.0 198 198
+ 0.237714 1 2 cbr 1000 ------- 3 1.0 2.0 208 208
- 0.237714 1 2 cbr 1000 ------- 3 1.0 2.0 208 208
r 0.238229 1 2 cbr 1000 ------- 3 1.0 2.0 199 199